"SMILES","CASRN","EXTERNALID","N","NAME","ARTICLEID","PUBMEDID","PAGE","TABLE","Melting Point","UNIT {Melting Point}","Decomposition","UNIT {Decomposition}","Glass-transition temperature (Tg)","UNIT {Glass-transition temperature (Tg)}","Melting Point {measured, converted}","UNIT {Melting Point}","Decomposition {measured, converted}","UNIT {Decomposition}","Glass-transition temperature (Tg) {measured, converted}","UNIT {Glass-transition temperature (Tg)}","weight loss","UNIT {weight loss}","Solvent"
"CCCC[N+]=1C=CN(C1C)C.FC(C(C(C(F)(F)F)(F)F)(F)F)(S(=O)(=O)[O-])F","-","-","AUTO_272","C1098_A0079","A132065","-","-","-","60.0","Celsius","-","-","-","-","60.0","Celsius","-","-","-","-","","-",""
"CCCC[N+]=1C=CN(C1C)C.FC(CCCOS(=O)(=O)[O-])(C(F)(F)F)F","-","-","AUTO_273","C1098_A0086","A132065","-","-","-","13.0","Celsius","-","-","-","-","13.0","Celsius","-","-","-","-","","-",""
"CCCC[N+]=1C=CN(C1C)C.FC(COS(=O)(=O)[O-])(C(C(C(F)F)(F)F)(F)F)F","-","-","AUTO_274","C1098_A0078","A132065","-","-","-","-14.0","Celsius","-","-","-","-","-14.0","Celsius","-","-","-","-","","-",""
"CCCC[N+]=1C=CN(C1C)C.CCCCCCOCCOCCOCCOCCOCCOCCOCCOCCOCCOCCOS([O-])(=O)=O","-","-","AUTO_275","C1098_A0058","A132065","-","-","-","36.0","Celsius","-","-","-","-","36.0","Celsius","-","-","-","-","","-",""
"CCCC[N+]=1C=CN(C1C)C.F[P-](F)(F)(F)(F)F","-","-","AUTO_276","C1098_A0011","A132065","-","-","-","40.0","Celsius","-","-","-","-","40.0","Celsius","-","-","-","-","","-",""
"CCCCCCCC[N+]=1C=CN(C1C)C.FC(S(=O)(=O)[O-])(F)F","-","-","AUTO_277","C0888_A0084","A132065","-","-","-","-38.0","Celsius","-","-","-","-","-38.0","Celsius","-","-","-","-","","-",""
"N#CCCCN1C=C[NH+]=C1C.[Cl-]","-","-","AUTO_278","C0571_A0033","A132065","-","-","-","105.0","Celsius","-","-","-","-","105.0","Celsius","-","-","-","-","","-",""
"N#CCCCN1C=C[NH+]=C1C.F[B-](F)(F)F","-","-","AUTO_279","C0571_A0020","A132065","-","-","-","40.0","Celsius","-","-","-","-","40.0","Celsius","-","-","-","-","","-",""
"N#CCCCN1C=C[NH+]=C1C.F[P-](F)(F)(F)(F)F","-","-","AUTO_280","C0571_A0011","A132065","-","-","-","85.0","Celsius","-","-","-","-","85.0","Celsius","-","-","-","-","","-",""
"[O-][N+](=O)C1=CN(C=[N+]1C)C.[O-]Cl(=O)(=O)=O","-","-","AUTO_281","C0140_A0051","A132065","-","-","-","172.0","Celsius","-","-","-","-","172.0","Celsius","-","-","-","-","","-",""
"[O-][N+](=O)C1=CN(C=[N+]1C)C.[N+](=O)([O-])[O-]","-","-","AUTO_282","C0140_A0090","A132065","-","-","-","163.0","Celsius","-","-","-","-","163.0","Celsius","-","-","-","-","","-",""
"CN1C=C[N+]2=C1CCC2.C(F)(F)(F)S(=O)(=O)[N-]S(=O)(=O)C(F)(F)F","-","-","AUTO_283","C1004_A0048","A132065","-","-","-","84.0","Celsius","-","-","-","-","84.0","Celsius","-","-","-","-","","-",""
"CCCCCC[N+]=1C=CN(C1C)C.C(F)(F)(F)S(=O)(=O)[N-]S(=O)(=O)C(F)(F)F","-","-","AUTO_284","C1036_A0048","A132065","-","-","-","-5.0","Celsius","-","-","-","-","-5.0","Celsius","-","-","-","-","","-",""
"OCC([N+]=1C=CN(C1)CC)C.[Br-]","-","-","AUTO_285","C0673_A0004","A132065","-","-","-","6.0","Celsius","-","-","-","-","6.0","Celsius","-","-","-","-","","-",""
"OCC([N+]=1C=CN(C1)CC)C(C)C.[Br-]","-","-","AUTO_286","C0398_A0004","A132065","-","-","-","12.0","Celsius","-","-","-","-","12.0","Celsius","-","-","-","-","","-",""
"OCC([N+]=1C=CN(C1)CC)CC(C)C.[Br-]","-","-","AUTO_287","C0003_A0004","A132065","-","-","-","16.0","Celsius","-","-","-","-","16.0","Celsius","-","-","-","-","","-",""
"C[N+]=1C=CN2C1CCCC2.C(F)(F)(F)S(=O)(=O)[N-]S(=O)(=O)C(F)(F)F","-","-","AUTO_288","C1134_A0048","A132065","-","-","-","47.0","Celsius","-","-","-","-","47.0","Celsius","-","-","-","-","","-",""
"CCN1C=C[N+](=C1C)CC.C(F)(F)(F)S(=O)(=O)[N-]S(=O)(=O)C(F)(F)F","-","-","AUTO_289","C0214_A0048","A132065","-","-","-","-22.0","Celsius","-","-","-","-","-22.0","Celsius","-","-","-","-","","-",""
"[O-][N+](=O)C1=CN(C(=[N+]1C)C)C.[O-]Cl(=O)(=O)=O","-","-","AUTO_290","C0517_A0051","A132065","-","-","-","186.0","Celsius","-","-","-","-","186.0","Celsius","-","-","-","-","","-",""
"[O-][N+](=O)C1=CN(C(=[N+]1C)C)C.[N+](=O)([O-])[O-]","-","-","AUTO_291","C0517_A0090","A132065","-","-","-","161.0","Celsius","-","-","-","-","161.0","Celsius","-","-","-","-","","-",""
"CC[N+]=1C(=CN(C1C)C)[N+](=O)[O-].[O-]Cl(=O)(=O)=O","-","-","AUTO_292","C0904_A0051","A132065","-","-","-","146.0","Celsius","-","-","-","-","146.0","Celsius","-","-","-","-","","-",""
"CC[N+]=1C(=CN(C1C)C)[N+](=O)[O-].[N+](=O)([O-])[O-]","-","-","AUTO_293","C0904_A0090","A132065","-","-","-","65.0","Celsius","-","-","-","-","65.0","Celsius","-","-","-","-","","-",""
"CC1=[N+](C)C(=C(N1C)C)C.[I-]","-","-","AUTO_294","C0503_A0069","A132065","-","-","-","213.0","Celsius","-","-","-","-","213.0","Celsius","-","-","-","-","","-",""
"CC1=[N+](C)C(=C(N1C)C)C.C(F)(F)(F)S(=O)(=O)[N-]S(=O)(=O)C(F)(F)F","-","-","AUTO_295","C0503_A0048","A132065","-","-","-","118.0","Celsius","-","-","-","-","118.0","Celsius","-","-","-","-","","-",""
"CC1=[N+](C)C(=C(N1C)C)C.F[P-](F)(F)(F)(F)F","-","-","AUTO_296","C0503_A0011","A132065","-","-","-","166.0","Celsius","-","-","-","-","166.0","Celsius","-","-","-","-","","-",""
"CCCC[N+]1=NN(C=2C1=CC=CC2)C.C(F)(F)(F)S(=O)(=O)[N-]S(=O)(=O)C(F)(F)F","-","-","AUTO_298","C0459_A0048","A132065","-","-","-","29.0","Celsius","-","-","-","-","29.0","Celsius","-","-","-","-","","-",""
"CCCC[N+]1=NN(C=2C1=CC=CC2)C.S(C)(=O)(=O)[O-]","-","-","AUTO_299","C0459_A0054","A132065","-","-","-","57.0","Celsius","-","-","-","-","57.0","Celsius","-","-","-","-","","-",""
"CCCC[N+]1=NN(C=2C1=CC=CC2)C.S(=O)(=O)([O-])C1=CC=C(C)C=C1","-","-","AUTO_300","C0459_A0030","A132065","-","-","-","120.0","Celsius","-","-","-","-","120.0","Celsius","-","-","-","-","","-",""
"CN1N=[N+](C=2C1=CC=CC2)CC3=CC=CC=C3.[Br-]","-","-","AUTO_301","C0235_A0004","A132065","-","-","-","173.0","Celsius","-","-","-","-","173.0","Celsius","-","-","-","-","","-",""
"CN1N=[N+](C=2C1=CC=CC2)CC3=CC=CC=C3.C(F)(F)(F)S(=O)(=O)[N-]S(=O)(=O)C(F)(F)F","-","-","AUTO_302","C0235_A0048","A132065","-","-","-","69.0","Celsius","-","-","-","-","69.0","Celsius","-","-","-","-","","-",""
"CN1N=[N+](C=2C1=CC=CC2)CC3=CC=CC=C3.S(C)(=O)(=O)[O-]","-","-","AUTO_303","C0235_A0054","A132065","-","-","-","92.0","Celsius","-","-","-","-","92.0","Celsius","-","-","-","-","","-",""
"CN1N=[N+](C=2C1=CC=CC2)CC3=CC=CC=C3.S(=O)(=O)([O-])C1=CC=C(C)C=C1","-","-","AUTO_304","C0235_A0030","A132065","-","-","-","143.0","Celsius","-","-","-","-","143.0","Celsius","-","-","-","-","","-",""
"[N-]=[N+]=NCC[N+]1=CN(C=N1)C.[I-]","-","-","AUTO_305","C0826_A0069","A132065","-","-","-","54.0","Celsius","-","-","-","-","54.0","Celsius","-","-","-","-","","-",""
"[N-]=[N+]=NCCN1C=N[N+](=C1)C.[O-]Cl(=O)(=O)=O","-","-","AUTO_306","C0583_A0051","A132065","-","-","-","63.0","Celsius","-","-","-","-","63.0","Celsius","-","-","-","-","","-",""
"[N-]=[N+]=NCC[NH+]1C=NC=N1.[N+](=O)([O-])[O-]","-","-","AUTO_307","C0178_A0090","A132065","-","-","-","99.0","Celsius","-","-","-","-","99.0","Celsius","-","-","-","-","","-",""
"[N-]=[N+]=NCC[N+]1=CN(C=N1)N.[Br-]","-","-","AUTO_308","C0554_A0004","A132065","-","-","-","85.0","Celsius","-","-","-","-","85.0","Celsius","-","-","-","-","","-",""
"[N-]=[N+]=NCC[N+]1=CN(C=N1)N.[N+](=O)([O-])[O-]","-","-","AUTO_309","C0554_A0090","A132065","-","-","-","70.0","Celsius","-","-","-","-","70.0","Celsius","-","-","-","-","","-",""
"CCCC[N+]=1N=CN(C1)CCC(F)(F)F.FC(S(=O)(=O)[O-])(F)F","-","-","AUTO_310","C0550_A0084","A132065","-","-","-","33.0","Celsius","-","-","-","-","33.0","Celsius","-","-","-","-","","-",""
"CCCC[N+]=1N=CN(C1)CCC(F)(F)F.C(F)(F)(F)S(=O)(=O)[N-]S(=O)(=O)C(F)(F)F","-","-","AUTO_311","C0550_A0048","A132065","-","-","-","69.0","Celsius","-","-","-","-","69.0","Celsius","-","-","-","-","","-",""
"CCCCCCCN1N=C[N+](=C1)CCC(C(C(C(F)(F)F)(F)F)(F)F)(F)F.C(F)(F)(F)S(=O)(=O)[N-]S(=O)(=O)C(F)(F)F","-","-","AUTO_312","C0172_A0048","A132065","-","-","-","55.0","Celsius","-","-","-","-","55.0","Celsius","-","-","-","-","","-",""
"CCCCCCCCCCN1N=C[N+](=C1)CCC(C(C(C(F)(F)F)(F)F)(F)F)(F)F.C(F)(F)(F)S(=O)(=O)[N-]S(=O)(=O)C(F)(F)F","-","-","AUTO_313","C0706_A0048","A132065","-","-","-","53.0","Celsius","-","-","-","-","53.0","Celsius","-","-","-","-","","-",""
"CN1N=C[N+](=C1)CCC(C(C(C(C(C(F)(F)F)(F)F)(F)F)(F)F)(F)F)(F)F.C(F)(F)(F)S(=O)(=O)[N-]S(=O)(=O)C(F)(F)F","-","-","AUTO_314","C0579_A0048","A132065","-","-","-","62.0","Celsius","-","-","-","-","62.0","Celsius","-","-","-","-","","-",""
"CCCCN1N=C[N+](=C1)CCC(C(C(C(C(C(F)(F)F)(F)F)(F)F)(F)F)(F)F)(F)F.C(F)(F)(F)S(=O)(=O)[N-]S(=O)(=O)C(F)(F)F","-","-","AUTO_315","C0992_A0048","A132065","-","-","-","28.0","Celsius","-","-","-","-","28.0","Celsius","-","-","-","-","","-",""
"CCCCCCCN1N=C[N+](=C1)CCC(C(C(C(C(C(F)(F)F)(F)F)(F)F)(F)F)(F)F)(F)F.C(F)(F)(F)S(=O)(=O)[N-]S(=O)(=O)C(F)(F)F","-","-","AUTO_316","C0074_A0048","A132065","-","-","-","22.0","Celsius","-","-","-","-","22.0","Celsius","-","-","-","-","","-",""
"CCCCCCC[N+]=1N=CN(C1)C(F)C.F[B-](F)(F)F","-","-","AUTO_317","C1094_A0020","A132065","-","-","-","52.0","Celsius","-","-","-","-","52.0","Celsius","-","-","-","-","","-",""
"CCCCCCCCCC[N+]=1N=CN(C1)C(F)C.FC(S(=O)(=O)[O-])(F)F","-","-","AUTO_318","C0522_A0084","A132065","-","-","-","46.0","Celsius","-","-","-","-","46.0","Celsius","-","-","-","-","","-",""
"CCCCCCCN1N=C[N+](=C1)CC(C(F)(F)F)O.[Br-]","-","-","AUTO_319","C0711_A0004","A132065","-","-","","98.0","Celsius","-","-","-","-","98.0","Celsius","-","-","-","-","","-",""
"C[N+]=1C=NN(C1)C.[N+](=O)([O-])[O-]","-","-","AUTO_320","C0593_A0090","A132065","-","-","-","1.0","Celsius","-","-","-","-","1.0","Celsius","-","-","-","-","","-",""
"C[N+]1=CN(C=N1)N.[O-]Cl(=O)(=O)=O","-","-","AUTO_321","C0391_A0051","A132065","-","-","-","86.0","Celsius","-","-","-","-","86.0","Celsius","-","-","-","-","","-",""
"C[N+]1=CN(C=N1)N.[N+](=O)([O-])[O-]","-","-","AUTO_322","C0391_A0090","A132065","-","-","-","54.0","Celsius","-","-","-","-","54.0","Celsius","-","-","-","-","","-",""
"C[N+]1=CN(C=N1)N.[N-]=[N+]=[N-]","-","-","AUTO_323","C0391_A0073","A132065","-","-","-","43.0","Celsius","-","-","-","-","43.0","Celsius","-","-","-","-","","-",""
"[N-]=[N+]=NC1=N[NH+](C=N1)C.[O-]Cl(=O)(=O)=O","-","-","AUTO_324","C0125_A0051","A132065","-","-","-","55.0","Celsius","-","-","-","-","55.0","Celsius","-","-","-","-","","-",""
"[N-]=[N+]=NC1=N[NH+](C=N1)C.[N+](=O)([O-])[O-]","-","-","AUTO_325","C0125_A0090","A132065","-","-","-","66.0","Celsius","-","-","-","-","66.0","Celsius","-","-","-","-","","-",""
"N#N=NC1=N[NH+](C=N1)C.C(ON(=O)=O)(=O)C1=N[N-]N=N1","-","-","AUTO_326","C0125_A0019","A132065","-","-","","-38.0","Celsius","-","-","-","-","-38.0","Celsius","-","-","-","-","","-",""
"[N-]=[N+]=NC1=N[NH+](C=N1)C.[N+](=O)([O-])C=1N=C(NC1[N+](=O)[O-])C(=O)[O-]","-","-","AUTO_327","C0125_A0035","A132065","-","-","-","80.0","Celsius","-","-","-","-","80.0","Celsius","-","-","-","-","","-",""
"[N-]=[N+]=NC1=N[NH2+]C(=N1)C.[N+](=O)([O-])[O-]","-","-","AUTO_328","C0890_A0090","A132065","-","-","-","118.0","Celsius","-","-","-","-","118.0","Celsius","-","-","-","-","","-",""
"[N-]=[N+]=NC1=N[NH2+]C=N1.[N+](=O)([O-])[O-]","-","-","AUTO_329","C0689_A0090","A132065","-","-","-","147.0","Celsius","-","-","-","-","147.0","Celsius","-","-","-","-","","-",""
"[N-]=[N+]=NC1=N[NH2+]C=N1.[N+](=O)([O-])C=1N=C(NC1[N+](=O)[O-])C(=O)[O-]","-","-","AUTO_330","C0689_A0035","A132065","-","-","-","92.0","Celsius","-","-","-","-","92.0","Celsius","-","-","-","-","","-",""
"[N-]=[N+]=NC1=NC(=N[NH2+]1)N=[N+]=[N-].[N+](=O)([O-])[O-]","-","-","AUTO_331","C0771_A0090","A132065","-","-","-","97.0","Celsius","-","-","-","-","97.0","Celsius","-","-","-","-","","-",""
"[N-]=[N+]=NC1=N[N+](=CN1C)C.[O-]Cl(=O)(=O)=O","-","-","AUTO_332","C0175_A0051","A132065","-","-","-","68.0","Celsius","-","-","-","-","68.0","Celsius","-","-","-","-","","-",""
"[N-]=[N+]=NC1=N[N+](=CN1C)C.[N+](=O)([O-])[O-]","-","-","AUTO_333","C0175_A0090","A132065","-","-","-","98.0","Celsius","-","-","-","-","98.0","Celsius","-","-","-","-","","-",""
"CCCN1N=C[N+](=C1)CCCCC(C(S(F)(F)(F)(F)F)(F)F)(F)F.C(F)(F)(F)S(=O)(=O)[N-]S(=O)(=O)C(F)(F)F","-","-","AUTO_334","C0781_A0048","A132065","-","-","-","-55.0","Celsius","-","-","-","-","-55.0","Celsius","-","-","-","-","","-",""
"N[NH+]1C=NC=N1.[O-]Cl(=O)(=O)=O","-","-","AUTO_335","C0430_A0051","A132065","-","-","-","91.0","Celsius","-","-","-","-","91.0","Celsius","-","-","-","-","","-",""
"N[NH+]1C=NC=N1.[N+](=O)([O-])[O-]","-","-","AUTO_336","C0430_A0090","A132065","-","-","-","121.0","Celsius","-","-","-","-","121.0","Celsius","-","-","-","-","","-",""
"C1=NN=CN1[NH3+].C(ON(=O)=O)(=O)C1=N[N-]N=N1","-","-","AUTO_337","C0218_A0019","A132065","-","-","","102.0","Celsius","-","-","-","-","102.0","Celsius","-","-","-","-","","-",""
"C1=NN=CN1[NH3+].[N+](=O)([O-])C=1N=C(NC1[N+](=O)[O-])C(=O)[O-]","-","-","AUTO_338","C0218_A0035","A132065","-","-","-","137.0","Celsius","-","-","-","-","137.0","Celsius","-","-","-","-","","-",""
"C1=NN=CN1[NH3+].N(=O)(=O)C=1[N-]N=CN1","-","-","AUTO_339","C0218_A0014","A132065","-","-","","64.0","Celsius","-","-","-","-","64.0","Celsius","-","-","-","-","","-",""
"C1=NN=CN1[NH3+].[O-]Cl(=O)(=O)=O","-","-","AUTO_340","C0218_A0051","A132065","-","-","-","83.0","Celsius","-","-","-","-","83.0","Celsius","-","-","-","-","","-",""
"C1=NN=CN1[NH3+].[N+](=O)([O-])[O-]","-","-","AUTO_341","C0218_A0090","A132065","-","-","-","69.0","Celsius","-","-","-","-","69.0","Celsius","-","-","-","-","","-",""
"CN1C=[N+](N=C1)N.[O-]Cl(=O)(=O)=O","-","-","AUTO_342","C0326_A0051","A132065","-","-","-","108.0","Celsius","-","-","-","-","108.0","Celsius","-","-","-","-","","-",""
"N[NH+]1N=CN=C1N.[O-]Cl(=O)(=O)=O","-","-","AUTO_344","C0007_A0051","A132065","-","-","-","138.0","Celsius","-","-","-","-","138.0","Celsius","-","-","-","-","","-",""
"N[NH+]1N=CN=C1N.[N+](=O)([O-])[O-]","-","-","AUTO_345","C0007_A0090","A132065","-","-","-","159.0","Celsius","-","-","-","-","159.0","Celsius","-","-","-","-","","-",""
"N[NH+]1N=CN=C1N.[N+](=O)([O-])C=1N=C(NC1[N+](=O)[O-])C(=O)[O-]","-","-","AUTO_346","C0007_A0035","A132065","-","-","-","153.0","Celsius","-","-","-","-","153.0","Celsius","-","-","-","-","","-",""
"C1=NC=N[NH2+]1.[N+](=O)([O-])C=1N=C(NC1[N+](=O)[O-])C(=O)[O-]","-","-","AUTO_347","C0442_A0035","A132065","-","-","-","156.0","Celsius","-","-","-","-","156.0","Celsius","-","-","-","-","","-",""
"C[NH+]1C=NC=N1.[N+](=O)([O-])C=1N=C(NC1[N+](=O)[O-])C(=O)[O-]","-","-","AUTO_348","C0058_A0035","A132065","-","-","-","102.0","Celsius","-","-","-","-","102.0","Celsius","-","-","-","-","","-",""
"CCCC[N+]1=NN(C=2C1=CC=CC2)CC.F[P-](F)(F)(F)(F)F","-","-","AUTO_349","C1039_A0011","A132065","-","-","-","101.0","Celsius","-","-","-","-","101.0","Celsius","-","-","-","-","","-",""
"CCCCN1N=[N+](C=2C1=CC=CC2)CCCC.[Br-]","-","-","AUTO_350","C0322_A0004","A132065","-","-","-","88.0","Celsius","-","-","-","-","88.0","Celsius","-","-","-","-","","-",""
"CCCCN1N=[N+](C=2C1=CC=CC2)CCCC.F[B-](F)(F)F","-","-","AUTO_351","C0322_A0020","A132065","-","-","-","85.0","Celsius","-","-","-","-","85.0","Celsius","-","-","-","-","","-",""
"CCCCN1N=[N+](C=2C1=CC=CC2)CCCC.F[P-](F)(F)(F)(F)F","-","-","AUTO_352","C0322_A0011","A132065","-","-","-","113.0","Celsius","-","-","-","-","113.0","Celsius","-","-","-","-","","-",""
"FCCC[N+]=1N=C(N(C1C)C)C(F)(F)F.[I-]","-","-","AUTO_353","C1003_A0069","A132065","-","-","-","115.0","Celsius","-","-","-","-","115.0","Celsius","-","-","-","-","","-",""
"FCCC[N+]=1N=C(N(C1C)C)C(F)(F)F.C(F)(F)(F)S(=O)(=O)[N-]S(=O)(=O)C(F)(F)F","-","-","AUTO_354","C1003_A0048","A132065","-","-","-","49.0","Celsius","-","-","-","-","49.0","Celsius","-","-","-","-","","-",""
"CN1N=C([N+](=C1C)C)C(C(C(C(C(C(C(C(F)(F)F)(F)F)(F)F)(F)F)(F)F)(F)F)(F)F)(F)F.[O-]Cl(=O)(=O)=O","-","-","AUTO_355","C0277_A0051","A132065","-","-","-","90.0","Celsius","-","-","-","-","90.0","Celsius","-","-","-","-","","-",""
"CN1N=C([N+](=C1C)C)C(C(C(C(C(C(C(C(F)(F)F)(F)F)(F)F)(F)F)(F)F)(F)F)(F)F)(F)F.F[B-](F)(F)F","-","-","AUTO_356","C0277_A0020","A132065","-","-","-","98.0","Celsius","-","-","-","-","98.0","Celsius","-","-","-","-","","-",""
"CN1N=C([N+](=C1C)C)C(C(C(C(C(C(C(C(F)(F)F)(F)F)(F)F)(F)F)(F)F)(F)F)(F)F)(F)F.C(F)(F)(F)S(=O)(=O)[N-]S(=O)(=O)C(F)(F)F","-","-","AUTO_357","C0277_A0048","A132065","-","-","-","81.0","Celsius","-","-","-","-","81.0","Celsius","-","-","-","-","","-",""
"C[N+]=1N=C(N(C1C)C)C(F)(F)F.[O-]Cl(=O)(=O)=O","-","-","AUTO_358","C0801_A0051","A132065","-","-","-","128.0","Celsius","-","-","-","-","128.0","Celsius","-","-","-","-","","-",""
"C[N+]=1N=C(N(C1C)C)C(F)(F)F.F[B-](F)(F)F","-","-","AUTO_359","C0801_A0020","A132065","-","-","-","130.0","Celsius","-","-","-","-","130.0","Celsius","-","-","-","-","","-",""
"C[N+]=1N=C(N(C1C)C)C(F)(F)F.C(F)(F)(F)S(=O)(=O)[N-]S(=O)(=O)C(F)(F)F","-","-","AUTO_360","C0801_A0048","A132065","-","-","-","70.0","Celsius","-","-","-","-","70.0","Celsius","-","-","-","-","","-",""
"C[N+]=1N=C(N(C1C)C)C(F)(F)F.FC(S(=O)(=O)[O-])(F)F","-","-","AUTO_361","C0801_A0084","A132065","-","-","-","137.0","Celsius","-","-","-","-","137.0","Celsius","-","-","-","-","","-",""
"CN1C=C[N+](=N1)N.[N+](=O)([O-])[O-]","-","-","AUTO_362","C0902_A0090","A132065","-","-","-","87.0","Celsius","-","-","-","-","87.0","Celsius","-","-","-","-","","-",""
"CN1C=C[N+](=N1)N.[N-]=[N+]=[N-]","-","-","AUTO_363","C0902_A0073","A132065","-","-","-","50.0","Celsius","-","-","-","-","50.0","Celsius","-","-","-","-","","-",""
"CCN1C=C[N+](=N1)N.[N+](=O)([O-])[O-]","-","-","AUTO_364","C0298_A0090","A132065","-","-","-","31.0","Celsius","-","-","-","-","31.0","Celsius","-","-","-","-","","-",""
"CCCN1C=C[N+](=N1)N.[N+](=O)([O-])[O-]","-","-","AUTO_365","C0154_A0090","A132065","-","-","-","34.0","Celsius","-","-","-","-","34.0","Celsius","-","-","-","-","","-",""
"N[N+]=1C=CN(N1)CC=C.[N+](=O)([O-])[O-]","-","-","AUTO_366","C0936_A0090","A132065","-","-","-","10.0","Celsius","-","-","-","-","10.0","Celsius","-","-","-","-","","-",""
"CCCCN1C=C[N+](=N1)N.[N+](=O)([O-])[O-]","-","-","AUTO_367","C0216_A0090","A132065","-","-","-","49.0","Celsius","-","-","-","-","49.0","Celsius","-","-","-","-","","-",""
"NN1C=[N+](N=C1)CCBr.[Br-]","-","-","AUTO_368","C0405_A0004","A132065","-","-","-","131.0","Celsius","-","-","-","-","131.0","Celsius","-","-","-","-","","-",""
"C[N+]1(C)CCCC1.C(F)(F)(F)S(=O)(=O)[N-]S(=O)(=O)C(F)(F)F","-","-","AUTO_369","C0411_A0048","A132065","-","-","-","105.0","Celsius","-","-","-","-","105.0","Celsius","-","-","-","-","","-",""
"C[N+]1(C)CCCC1.C(#N)[N-]C#N","-","-","AUTO_370","C0411_A0056","A132065","-","-","-","115.0","Celsius","-","-","-","-","115.0","Celsius","-","-","-","-","","-",""
"C[N+]1(C)CCCC1.FC(F)(F)C(=O)[N-]S(=O)(=O)C(F)(F)F","-","-","AUTO_371","C0411_A0034","A132065","-","-","-","14.0","Celsius","-","-","-","-","14.0","Celsius","-","-","-","-","","-",""
"C[N+]1(C)CCCC1.CS(=O)(=O)[N-]S(C)(=O)=O","-","-","AUTO_372","C0411_A0032","A132065","-","-","-","48.0","Celsius","-","-","-","-","48.0","Celsius","-","-","-","-","","-",""
"C[N+]1(C)CCCC1.S(C)(=O)(=O)[O-]","-","-","AUTO_373","C0411_A0054","A132065","-","-","-","200.0","Celsius","-","-","-","-","200.0","Celsius","-","-","-","-","","-",""
"C[N+]1(C)CCCC1.FC(C(C(C(F)(F)F)(F)F)(F)F)(S(=O)(=O)[O-])F","-","-","AUTO_374","C0411_A0079","A132065","-","-","-","198.0","Celsius","-","-","-","-","198.0","Celsius","-","-","-","-","","-",""
"C[N+]1(C)CCCC1.S(=O)(=O)([O-])C1=CC=C(C)C=C1","-","-","AUTO_375","C0411_A0030","A132065","-","-","-","167.0","Celsius","-","-","-","-","167.0","Celsius","-","-","-","-","","-",""
"C[N+]1(C)CCCC1.C(C=CC(=O)[O-])(=O)O","-","-","AUTO_376","C0411_A0039","A132065","-","-","-","74.0","Celsius","-","-","-","-","74.0","Celsius","-","-","-","-","","-",""
"C[N+]1(C)CCCC1.OC(=O)C1=CC=CC=C1C([O-])=O","-","-","AUTO_377","C0411_A0088","A132065","-","-","-","88.0","Celsius","-","-","-","-","88.0","Celsius","-","-","-","-","","-",""
"CC[N+]1(C)CCCC1.C(#N)[N-]C#N","-","-","AUTO_378","C0876_A0056","A132065","-","-","-","-10.0","Celsius","-","-","-","-","-10.0","Celsius","-","-","-","-","","-",""