"SMILES","CASRN","EXTERNALID","N","NAME","ARTICLEID","PUBMEDID","PAGE","TABLE","Melting Point","UNIT {Melting Point}","Decomposition","UNIT {Decomposition}","Glass-transition temperature (Tg)","UNIT {Glass-transition temperature (Tg)}","Melting Point {measured, converted}","UNIT {Melting Point}","Decomposition {measured, converted}","UNIT {Decomposition}","Glass-transition temperature (Tg) {measured, converted}","UNIT {Glass-transition temperature (Tg)}","weight loss","UNIT {weight loss}","Solvent"
"CCCC[NH3+].[O-]C(=O)C(F)(F)C(F)(F)C(F)(F)C(F)(F)C(F)(F)C(F)(F)C(F)(F)F","-","-","AUTO_23","-","A138128","-","-","-","318.2","K","-","-","-","-","45.2","Celsius","-","-","-","-","","-",""
"CCCCCCCCN1C=C[N+](C)=C1.[O-]C(=O)C(F)(F)C(F)(F)C(F)(F)C(F)(F)F","-","-","AUTO_24","-","A138128","-","-","-","297.2","K","-","-","-","-","24.2","Celsius","-","-","-","-","","-",""
"CN1C=C[NH+]=C1.[O-]C(=O)C(F)(F)C(F)(F)C(F)(F)F","-","-","AUTO_26","-","A138128","-","-","-","352.2","K","-","-","-","-","79.2","Celsius","-","-","-","-","","-",""
"O=C1CCC[NH2+]1.[O-]C(=O)C(F)(F)C(F)(F)C(F)(F)F","-","-","AUTO_27","-","A138128","-","-","-","281.2","K","-","-","-","-","8.2","Celsius","-","-","-","-","","-",""
"CC[NH3+].[O-]C(=O)C(F)(F)C(F)(F)C(F)(F)F","-","-","AUTO_28","-","A138128","-","-","-","332.2","K","-","-","-","-","59.2","Celsius","-","-","-","-","","-",""
"CCCC[NH3+].[O-]C(=O)C(F)(F)C(F)(F)C(F)(F)F","-","-","AUTO_29","-","A138128","-","-","-","326.2","K","-","-","-","-","53.2","Celsius","-","-","-","-","","-",""
"CC[NH2+]CC.[O-]C(=O)C(F)(F)C(F)(F)C(F)(F)F","-","-","AUTO_30","-","A138128","-","-","-","318.2","K","-","-","-","-","45.2","Celsius","-","-","-","-","","-",""
"CC[NH+](CC)CC.[O-]C(=O)C(F)(F)C(F)(F)C(F)(F)F","-","-","AUTO_31","-","A138128","-","-","-","298.2","K","-","-","-","-","25.2","Celsius","-","-","-","-","","-",""
"[NH3+]CCO.[O-]C(=O)C(F)(F)C(F)(F)C(F)(F)F","-","-","AUTO_32","-","A138128","-","-","-","314.2","K","-","-","-","-","41.2","Celsius","-","-","-","-","","-",""
"C1CC[NH2+]C1.[O-]C(=O)C(F)(F)C(F)(F)C(F)(F)F","-","-","AUTO_33","-","A138128","-","-","-","277.2","K","-","-","-","-","4.2","Celsius","-","-","-","-","","-",""
"CCCCCCCCN1C=C[N+](C)=C1.[O-]C(=O)C(F)(F)F","-","-","AUTO_37","-","A138128","-","-","-","279.5","K","-","-","-","-","6.5","Celsius","-","-","-","-","","-",""
"[NH3+]CCO.[O-]C(=O)C(F)(F)F","-","-","AUTO_40","-","A138128","-","-","-","362.2","K","-","-","-","-","89.2","Celsius","-","-","-","-","","-",""
"C1CC[NH2+]C1.[O-]C(=O)C(F)(F)F","-","-","AUTO_41","-","A138128","-","-","-","263.2","K","-","-","-","-","-9.8","Celsius","-","-","-","-","","-",""
"CCCC[N+]1(C)CCCCCC1.[O-]C(=O)C(F)(F)F","-","-","AUTO_44","-","A138128","-","-","-","347.2","K","-","-","-","-","74.2","Celsius","-","-","-","-","","-",""
"CCCCCC[N+]1(C)CCCCCC1.[O-]C(=O)C(F)(F)F","-","-","AUTO_45","-","A138128","-","-","-","318.2","K","-","-","-","-","45.2","Celsius","-","-","-","-","","-",""
"COCC[N+]1(C)CCCCCC1.[O-]C(=O)C(F)(F)F","-","-","AUTO_46","-","A138128","-","-","-","285.2","K","-","-","-","-","12.2","Celsius","-","-","-","-","","-",""
"CCCCN1C=C[N+](C)=C1.CCCCCCOC(=O)C[C@H]([C@@H](C(=O)OCCCCCC)S([O-])(=O)=O)C(=O)OCCCCCC","-","-","AUTO_47","-","A138128","-","-","-","251.2","K","-","-","-","-","-21.8","Celsius","-","-","-","-","","-",""
"CCN1C=C[N+](C)=C1.N#C[B-](C#N)(C#N)C#N","-","-","AUTO_48","-","A138128","-","-","-","281.5","K","-","-","-","-","8.5","Celsius","-","-","-","-","","-",""
"CCCCN1C=C[N+](C)=C1C.N#C[B-](C#N)(C#N)C#N","-","-","AUTO_49","-","A138128","-","-","-","336.2","K","-","-","-","-","63.2","Celsius","-","-","-","-","","-",""
"C1=CC=[NH+]C=C1.N#C[B-](C#N)(C#N)C#N","-","-","AUTO_50","-","A138128","-","-","-","410.2","K","-","-","-","-","137.2","Celsius","-","-","-","-","","-",""
"C[NH2+]C.N#C[B-](C#N)(C#N)C#N","-","-","AUTO_51","-","A138128","-","-","-","402.2","K","-","-","-","-","129.2","Celsius","-","-","-","-","","-",""
"CCCC[N+]1(C)CCCCC1.N#C[B-](C#N)(C#N)C#N","-","-","AUTO_53","-","A138128","-","-","-","290.2","K","-","-","-","-","17.2","Celsius","-","-","-","-","","-",""
"CCN1C=C[N+](C)=C1.N#CCC([C-](C#N)C#N)=C(C#N)C#N","-","-","AUTO_54","-","A138128","-","-","-","298.2","K","-","-","-","-","25.2","Celsius","-","-","-","-","","-",""
"CCN1C=C[N+](C)=C1.CC([C-](C#N)C#N)=C(C#N)C#N","-","-","AUTO_55","-","A138128","-","-","-","315.2","K","-","-","-","-","42.2","Celsius","-","-","-","-","","-",""
"CCN1C=C[N+](C)=C1.N#C[C-](C=C(C#N)C#N)C#N","-","-","AUTO_56","-","A138128","-","-","-","315.2","K","-","-","-","-","42.2","Celsius","-","-","-","-","","-",""
"CCCCN1C=C[N+](C)=C1.N#C[C-](C=C(C#N)C#N)C#N","-","-","AUTO_57","-","A138128","-","-","-","293.2","K","-","-","-","-","20.2","Celsius","-","-","-","-","","-",""
"CCCCN1C=C[N+](C)=C1.CCCCOS([O-])(=O)=O","-","-","AUTO_60","-","A138128","-","-","-","248.2","K","-","-","-","-","-24.8","Celsius","-","-","-","-","","-",""
"CCCCN1C=C[N+](C)=C1C.CCCCOS([O-])(=O)=O","-","-","AUTO_61","-","A138128","-","-","-","320.2","K","-","-","-","-","47.2","Celsius","-","-","-","-","","-",""
"CC[N+]1(C)CCCCC1.CCCCOS([O-])(=O)=O","-","-","AUTO_62","-","A138128","-","-","-","316.2","K","-","-","-","-","43.2","Celsius","-","-","-","-","","-",""
"CCCC[N+]1(C)CCCCC1.CCCCOS([O-])(=O)=O","-","-","AUTO_63","-","A138128","-","-","-","328.2","K","-","-","-","-","55.2","Celsius","-","-","-","-","","-",""
"CC[N+]1(C)CCOCC1.CCCCOS([O-])(=O)=O","-","-","AUTO_64","-","A138128","-","-","-","292.2","K","-","-","-","-","19.2","Celsius","-","-","-","-","","-",""
"CCCCN1C=C[N+](C)=C1.CCOS([O-])(=O)=O","-","-","AUTO_67","-","A138128","-","-","-","330.2","K","-","-","-","-","57.2","Celsius","-","-","-","-","","-",""
"CC[N+]1=CC=CC=C1C#N.CCOS([O-])(=O)=O","-","-","AUTO_68","-","A138128","-","-","-","308.2","K","-","-","-","-","35.2","Celsius","-","-","-","-","","-",""
"CCCC[N+](C)(C)CC.CCOS([O-])(=O)=O","-","-","AUTO_69","-","A138128","-","-","-","307.0","K","-","-","-","-","34.0","Celsius","-","-","-","-","","-",""
"CC(C)CN1C=C[N+](CC(C)C)=C1.CC1=CC=C(C=C1)S([O-])(=O)=O","-","-","AUTO_97","-","A138128","-","-","-","368.2","K","-","-","-","-","95.2","Celsius","-","-","-","-","","-",""
"CCCCCCN1C=C[N+](CCCCCC)=C1.CC1=CC=C(C=C1)S([O-])(=O)=O","-","-","AUTO_98","-","A138128","-","-","-","340.2","K","-","-","-","-","67.2","Celsius","-","-","-","-","","-",""
"CCCCCCCCN1C=C[N+](C)=C1.CC1=CC=C(C=C1)S([O-])(=O)=O","-","-","AUTO_99","-","A138128","-","-","-","370.2","K","-","-","-","-","97.2","Celsius","-","-","-","-","","-",""
"CCCC[C@H](CC)CN1C=C[N+](C[C@H](CC)CCCC)=C1.CC1=CC=C(C=C1)S([O-])(=O)=O","-","-","AUTO_100","-","A138128","-","-","-","329.2","K","-","-","-","-","56.2","Celsius","-","-","-","-","","-",""
"CCCCCCCCCCN1C=C[N+](CCCCCCCCCC)=C1.CC1=CC=C(C=C1)S([O-])(=O)=O","-","-","AUTO_101","-","A138128","-","-","-","349.2","K","-","-","-","-","76.2","Celsius","-","-","-","-","","-",""
"CCN1C=C[N+](C)=C1.[O-]S(=O)(=O)C(F)(F)C(F)(F)C(F)(F)C(F)(F)C(F)(F)C(F)(F)C(F)(F)C(F)(F)F","-","-","AUTO_108","-","A138128","-","-","-","367.7","K","-","-","-","-","94.7","Celsius","-","-","-","-","","-",""
"CCCC[N+](C)(C)C.CCCCCCCCS([O-])(=O)=O","-","-","AUTO_110","-","A138128","-","-","-","484.0","K","-","-","-","-","211.0","Celsius","-","-","-","-","","-",""
"C[N+](C)(C)CCO.CCCCCCCCS([O-])(=O)=O","-","-","AUTO_111","-","A138128","-","-","-","390.0","K","-","-","-","-","117.0","Celsius","-","-","-","-","","-",""
"CC[N+](C)(C)CCO.CCCCCCCCS([O-])(=O)=O","-","-","AUTO_112","-","A138128","-","-","-","320.0","K","-","-","-","-","47.0","Celsius","-","-","-","-","","-",""
"CCCCCC[N+]=1C=CN(C)C1.[O-]S(=O)(=O)C(F)(F)C(F)(F)C(F)(F)C(F)(F)F","-","-","AUTO_117","-","A138128","-","-","-","296.8","K","-","-","-","-","23.8","Celsius","-","-","-","-","","-",""
"CCCCCCCCCCN1C=C[N+](C)=C1.[O-]S(=O)(=O)C(F)(F)C(F)(F)C(F)(F)C(F)(F)F","-","-","AUTO_119","-","A138128","-","-","-","307.0","K","-","-","-","-","34.0","Celsius","-","-","-","-","","-",""
"CCCCCCCC[N+]1=CC=CC=C1.[O-]S(=O)(=O)C(F)(F)C(F)(F)C(F)(F)C(F)(F)F","-","-","AUTO_120","-","A138128","-","-","-","346.2","K","-","-","-","-","73.2","Celsius","-","-","-","-","","-",""
"CCCCCCCC[N+]1=CC=CC=C1C.[O-]S(=O)(=O)C(F)(F)C(F)(F)C(F)(F)C(F)(F)F","-","-","AUTO_122","-","A138128","-","-","-","351.2","K","-","-","-","-","78.2","Celsius","-","-","-","-","","-",""
"CCCCCCCC[N+]1=CC=C(C)C=C1.[O-]S(=O)(=O)C(F)(F)C(F)(F)C(F)(F)C(F)(F)F","-","-","AUTO_123","-","A138128","-","-","-","341.2","K","-","-","-","-","68.2","Celsius","-","-","-","-","","-",""
"CCN1C=C[N+](C)=C1.CCCCS([O-])(=O)=O","-","-","AUTO_127","-","A138128","-","-","-","277.2","K","-","-","-","-","4.2","Celsius","-","-","-","-","","-",""
"CCCC[N+](C)(C)C.CCCCS([O-])(=O)=O","-","-","AUTO_129","-","A138128","-","-","-","335.0","K","-","-","-","-","62.0","Celsius","-","-","-","-","","-",""
"C[N+](C)(C)CCO.CCCCS([O-])(=O)=O","-","-","AUTO_130","-","A138128","-","-","-","324.0","K","-","-","-","-","51.0","Celsius","-","-","-","-","","-",""
"CC[N+](C)(C)CCO.CCCCS([O-])(=O)=O","-","-","AUTO_131","-","A138128","-","-","-","293.0","K","-","-","-","-","20.0","Celsius","-","-","-","-","","-",""
"CCN1C=C[N+](C)=C1.[O-]S(=O)(=O)C(F)(F)C(F)(F)F","-","-","AUTO_132","-","A138128","-","-","-","208.2","K","-","-","-","-","-64.8","Celsius","-","-","-","-","","-",""
"CCN1C=C[N+](C)=C1.CCS([O-])(=O)=O","-","-","AUTO_133","-","A138128","-","-","-","302.2","K","-","-","-","-","29.2","Celsius","-","-","-","-","","-",""
"CCCCN1C=C[NH+]=C1.CS([O-])(=O)=O","-","-","AUTO_138","-","A138128","-","-","-","343.2","K","-","-","-","-","70.2","Celsius","-","-","-","-","","-",""
"CCCCCCN1C=C[NH+]=C1.CS([O-])(=O)=O","-","-","AUTO_139","-","A138128","-","-","-","332.2","K","-","-","-","-","59.2","Celsius","-","-","-","-","","-",""
"CC[NH+](C)C.CS([O-])(=O)=O","-","-","AUTO_154","-","A138128","-","-","-","367.9","K","-","-","-","-","94.9","Celsius","-","-","-","-","","-",""
"CC[NH+](C)CC.CS([O-])(=O)=O","-","-","AUTO_155","-","A138128","-","-","-","302.2","K","-","-","-","-","29.2","Celsius","-","-","-","-","","-",""
"CCCC[N+](C)(C)C.CS([O-])(=O)=O","-","-","AUTO_156","-","A138128","-","-","-","442.0","K","-","-","-","-","169.0","Celsius","-","-","-","-","","-",""
"C[N+](C)(C)CCO.CS([O-])(=O)=O","-","-","AUTO_161","-","A138128","-","-","-","393.0","K","-","-","-","-","120.0","Celsius","-","-","-","-","","-",""
"CC[N+](C)(C)CCO.CS([O-])(=O)=O","-","-","AUTO_162","-","A138128","-","-","-","317.0","K","-","-","-","-","44.0","Celsius","-","-","-","-","","-",""
"COCC[NH3+].CS([O-])(=O)=O","-","-","AUTO_163","-","A138128","-","-","-","335.8","K","-","-","-","-","62.8","Celsius","-","-","-","-","","-",""
"CCCCCCOC(=O)C[N+](C)(C)C.CS([O-])(=O)=O","-","-","AUTO_164","-","A138128","-","-","-","376.2","K","-","-","-","-","103.2","Celsius","-","-","-","-","","-",""
"CCCCCCCCCCCCOC(=O)C[N+](C)(C)C.CS([O-])(=O)=O","-","-","AUTO_165","-","A138128","-","-","-","377.2","K","-","-","-","-","104.2","Celsius","-","-","-","-","","-",""
"CCCCCCCCCCCCCCOC(=O)C[N+](C)(C)C.CS([O-])(=O)=O","-","-","AUTO_166","-","A138128","-","-","-","377.2","K","-","-","-","-","104.2","Celsius","-","-","-","-","","-",""
"CCCCCCCCCCCCCCCCOC(=O)C[N+](C)(C)C.CS([O-])(=O)=O","-","-","AUTO_167","-","A138128","-","-","-","378.2","K","-","-","-","-","105.2","Celsius","-","-","-","-","","-",""
"CC[C@@H](C)[NH3+].[S-]C#N","-","-","AUTO_175","-","A138128","-","-","-","295.7","K","-","-","-","-","22.7","Celsius","-","-","-","-","","-",""
"CC[P+](CC)(CC)CC.N#CC1=CC=C[N-]1","-","-","AUTO_182","-","A138128","-","-","-","282.0","K","-","-","-","-","9.0","Celsius","-","-","-","-","","-",""
"CCCC[P+](CC)(CC)CC.N#CC1=CC=C[N-]1","-","-","AUTO_183","-","A138128","-","-","-","312.0","K","-","-","-","-","39.0","Celsius","-","-","-","-","","-",""
"CCCCCCCCCCCC[P+](CC)(CC)CC.N#CC1=CC=C[N-]1","-","-","AUTO_184","-","A138128","-","-","-","215.0","K","-","-","-","-","-58.0","Celsius","-","-","-","-","","-",""
"CCCCCCCCCCCCCCCCCC[P+](CCCC)(CCCC)CCCC.N#CC1=CC=C[N-]1","-","-","AUTO_185","-","A138128","-","-","-","278.0","K","-","-","-","-","5.0","Celsius","-","-","-","-","","-",""
"CCCC[P+](C)(CCCC)CCCC.COP([O-])(=O)OC","-","-","AUTO_192","-","A138128","-","-","-","290.0","K","-","-","-","-","17.0","Celsius","-","-","-","-","","-",""
"CN1C=C[N+](C)=C1.F[P-](F)(F)(F)(F)F","-","-","AUTO_197","-","A138128","-","-","-","388.2","K","-","-","-","-","115.2","Celsius","-","-","-","-","","-",""
"CC=1N(C)C=C[N+]1CCCC#N.F[P-](F)(F)(F)(F)F","-","-","AUTO_204","-","A138128","-","-","-","363.7","K","-","-","-","-","90.7","Celsius","-","-","-","-","","-",""
"CC[N+]1=CC=CC=C1C#N.F[P-](F)(F)(F)(F)F","-","-","AUTO_210","-","A138128","-","-","-","438.2","K","-","-","-","-","165.2","Celsius","-","-","-","-","","-",""
"CC[N+]1=CC=CC(=C1)C#N.F[P-](F)(F)(F)(F)F","-","-","AUTO_211","-","A138128","-","-","-","438.7","K","-","-","-","-","165.7","Celsius","-","-","-","-","","-",""
"CC[N+]1=CC=C(C=C1)C#N.F[P-](F)(F)(F)(F)F","-","-","AUTO_212","-","A138128","-","-","-","449.2","K","-","-","-","-","176.2","Celsius","-","-","-","-","","-",""
"CCCC[N+]1=CC=C(C=C1)C#N.F[P-](F)(F)(F)(F)F","-","-","AUTO_213","-","A138128","-","-","-","413.2","K","-","-","-","-","140.2","Celsius","-","-","-","-","","-",""
"CCCC[N+]1=CC=CC(=C1)C#N.F[P-](F)(F)(F)(F)F","-","-","AUTO_214","-","A138128","-","-","-","383.7","K","-","-","-","-","110.7","Celsius","-","-","-","-","","-",""
"CCCCCC[N+]1=CC=C(C=C1)C#N.F[P-](F)(F)(F)(F)F","-","-","AUTO_215","-","A138128","-","-","-","388.2","K","-","-","-","-","115.2","Celsius","-","-","-","-","","-",""
"CCCCCCCC[N+]1=CC=C(C=C1)C#N.F[P-](F)(F)(F)(F)F","-","-","AUTO_216","-","A138128","-","-","-","396.2","K","-","-","-","-","123.2","Celsius","-","-","-","-","","-",""
"C[N+](C)(C)CCCC#N.F[P-](F)(F)(F)(F)F","-","-","AUTO_218","-","A138128","-","-","-","435.7","K","-","-","-","-","162.7","Celsius","-","-","-","-","","-",""
"CCCCCCCC[P+](CCCC)(CCCC)CCCC.F[P-](F)(F)(F)(F)F","-","-","AUTO_220","-","A138128","-","-","-","293.1","K","-","-","-","-","20.1","Celsius","-","-","-","-","","-",""
"CCCC[S+](C)C.F[P-](F)(F)(F)(F)F","-","-","AUTO_221","-","A138128","-","-","-","357.5","K","-","-","-","-","84.5","Celsius","-","-","-","-","","-",""
"CCCCCC[S+](C)C.F[P-](F)(F)(F)(F)F","-","-","AUTO_222","-","A138128","-","-","-","406.2","K","-","-","-","-","133.2","Celsius","-","-","-","-","","-",""
"CCCCN1C=C[NH+]=C1.[O-]S(=O)(=O)C(F)(F)F","-","-","AUTO_226","-","A138128","-","-","-","301.2","K","-","-","-","-","28.2","Celsius","-","-","-","-","","-",""
"CCCCCCN1C=C[NH+]=C1.[O-]S(=O)(=O)C(F)(F)F","-","-","AUTO_227","-","A138128","-","-","-","291.2","K","-","-","-","-","18.2","Celsius","-","-","-","-","","-",""
"CCN1C=C[N+](CC)=C1C.[O-]S(=O)(=O)C(F)(F)F","-","-","AUTO_232","-","A138128","-","-","-","386.2","K","-","-","-","-","113.2","Celsius","-","-","-","-","","-",""
"CCCCCCCC[N+]1=CC=CC=C1.[O-]S(=O)(=O)C(F)(F)F","-","-","AUTO_244","-","A138128","-","-","-","322.2","K","-","-","-","-","49.2","Celsius","-","-","-","-","","-",""
"CCCCCCCC[N+]1=CC=CC=C1C.[O-]S(=O)(=O)C(F)(F)F","-","-","AUTO_249","-","A138128","-","-","-","313.2","K","-","-","-","-","40.2","Celsius","-","-","-","-","","-",""
"CCOC1=[N+](C)CCC1.[O-]S(=O)(=O)C(F)(F)F","-","-","AUTO_251","-","A138128","-","-","-","315.3","K","-","-","-","-","42.3","Celsius","-","-","-","-","","-",""
"CC[N+]1=C(CCC1)OC.[O-]S(=O)(=O)C(F)(F)F","-","-","AUTO_252","-","A138128","-","-","-","287.9","K","-","-","-","-","14.9","Celsius","-","-","-","-","","-",""
"CCOC1=[N+](CC)CCC1.[O-]S(=O)(=O)C(F)(F)F","-","-","AUTO_253","-","A138128","-","-","-","307.3","K","-","-","-","-","34.3","Celsius","-","-","-","-","","-",""
"CCOC1=[N+](C)CCCCC1.[O-]S(=O)(=O)C(F)(F)F","-","-","AUTO_254","-","A138128","-","-","-","313.3","K","-","-","-","-","40.3","Celsius","-","-","-","-","","-",""
"[NH3+]CCO.[O-]S(=O)(=O)C(F)(F)F","-","-","AUTO_258","-","A138128","-","-","-","348.0","K","-","-","-","-","75.0","Celsius","-","-","-","-","","-",""
"CC(C)(C)[NH3+].[O-]S(=O)(=O)C(F)(F)F","-","-","AUTO_259","-","A138128","-","-","-","284.8","K","-","-","-","-","11.8","Celsius","-","-","-","-","","-",""
"COC=[N+](C)C.[O-]S(=O)(=O)C(F)(F)F","-","-","AUTO_260","-","A138128","-","-","-","296.4","K","-","-","-","-","23.4","Celsius","-","-","-","-","","-",""
"CCOC=[N+](C)C.[O-]S(=O)(=O)C(F)(F)F","-","-","AUTO_261","-","A138128","-","-","-","278.2","K","-","-","-","-","5.2","Celsius","-","-","-","-","","-",""
"CCOC(C)=[N+](C)C.[O-]S(=O)(=O)C(F)(F)F","-","-","AUTO_262","-","A138128","-","-","-","350.2","K","-","-","-","-","77.2","Celsius","-","-","-","-","","-",""
"CCOC(C)=[N+](CC)CC.[O-]S(=O)(=O)C(F)(F)F","-","-","AUTO_263","-","A138128","-","-","-","321.7","K","-","-","-","-","48.7","Celsius","-","-","-","-","","-",""
"CCCCCC[N+]1(C)CCCCCC1.[O-]S(=O)(=O)C(F)(F)F","-","-","AUTO_267","-","A138128","-","-","-","371.2","K","-","-","-","-","98.2","Celsius","-","-","-","-","","-",""
"COCC[N+]1(C)CCCCCC1.[O-]S(=O)(=O)C(F)(F)F","-","-","AUTO_268","-","A138128","-","-","-","289.2","K","-","-","-","-","16.2","Celsius","-","-","-","-","","-",""
"COCCOCC[N+]1(C)CCCCCC1.[O-]S(=O)(=O)C(F)(F)F","-","-","AUTO_269","-","A138128","-","-","-","305.2","K","-","-","-","-","32.2","Celsius","-","-","-","-","","-",""
"CCCN1C=C[N+](CCC)=C1.FC(F)(F)S(=O)(=O)[N-]S(=O)(=O)C(F)(F)F","-","-","AUTO_281","-","A138128","-","-","-","283.9","K","-","-","-","-","10.9","Celsius","-","-","-","-","","-",""
"CCCCN1C=C[N+](C)=C1C.FC(F)(F)S(=O)(=O)[N-]S(=O)(=O)C(F)(F)F","-","-","AUTO_285","-","A138128","-","-","-","260.2","K","-","-","-","-","-12.8","Celsius","-","-","-","-","","-",""
"COCC[N+]=1C=CN(C)C1C.FC(F)(F)S(=O)(=O)[N-]S(=O)(=O)C(F)(F)F","-","-","AUTO_295","-","A138128","-","-","-","242.2","K","-","-","-","-","-30.8","Celsius","-","-","-","-","","-",""
"CCC=1N(CC)C=C[N+]1CCOC.FC(F)(F)S(=O)(=O)[N-]S(=O)(=O)C(F)(F)F","-","-","AUTO_296","-","A138128","-","-","-","278.5","K","-","-","-","-","5.5","Celsius","-","-","-","-","","-",""
"CCCN1C=C[N+](CCOC)=C1C.FC(F)(F)S(=O)(=O)[N-]S(=O)(=O)C(F)(F)F","-","-","AUTO_297","-","A138128","-","-","-","293.4","K","-","-","-","-","20.4","Celsius","-","-","-","-","","-",""
"CCCN1C=C[N+](CCOC)=C1CC.FC(F)(F)S(=O)(=O)[N-]S(=O)(=O)C(F)(F)F","-","-","AUTO_298","-","A138128","-","-","-","288.79999999999995","K","-","-","-","-","15.8","Celsius","-","-","-","-","","-",""
"CCCCN1C=C[N+](CCOC)=C1CC.FC(F)(F)S(=O)(=O)[N-]S(=O)(=O)C(F)(F)F","-","-","AUTO_299","-","A138128","-","-","-","286.7","K","-","-","-","-","13.7","Celsius","-","-","-","-","","-",""
"CCCCCN1C=C[N+](CCOC)=C1C.FC(F)(F)S(=O)(=O)[N-]S(=O)(=O)C(F)(F)F","-","-","AUTO_300","-","A138128","-","-","-","289.0","K","-","-","-","-","16.0","Celsius","-","-","-","-","","-",""
"CCCCCN1C=C[N+](CCOC)=C1CC.FC(F)(F)S(=O)(=O)[N-]S(=O)(=O)C(F)(F)F","-","-","AUTO_301","-","A138128","-","-","-","278.4","K","-","-","-","-","5.4","Celsius","-","-","-","-","","-",""
"COCCN1C=C[N+](CCOC)=C1C.FC(F)(F)S(=O)(=O)[N-]S(=O)(=O)C(F)(F)F","-","-","AUTO_302","-","A138128","-","-","-","331.3","K","-","-","-","-","58.3","Celsius","-","-","-","-","","-",""
"CCC=1N(CCOC)C=C[N+]1CCOC.FC(F)(F)S(=O)(=O)[N-]S(=O)(=O)C(F)(F)F","-","-","AUTO_303","-","A138128","-","-","-","281.0","K","-","-","-","-","8.0","Celsius","-","-","-","-","","-",""
"CCOCC[N+]=1C=CN(CCOC)C1C.FC(F)(F)S(=O)(=O)[N-]S(=O)(=O)C(F)(F)F","-","-","AUTO_304","-","A138128","-","-","-","274.5","K","-","-","-","-","1.5","Celsius","-","-","-","-","","-",""
"CCOCC=1N(C)C=C[N+]1C.FC(F)(F)S(=O)(=O)[N-]S(=O)(=O)C(F)(F)F","-","-","AUTO_305","-","A138128","-","-","-","280.7","K","-","-","-","-","7.7","Celsius","-","-","-","-","","-",""
"CCCOCC=1N(C)C=C[N+]1C.FC(F)(F)S(=O)(=O)[N-]S(=O)(=O)C(F)(F)F","-","-","AUTO_306","-","A138128","-","-","-","278.3","K","-","-","-","-","5.3","Celsius","-","-","-","-","","-",""
"COC[N+]=1C=CN(C)C1C.FC(F)(F)S(=O)(=O)[N-]S(=O)(=O)C(F)(F)F","-","-","AUTO_307","-","A138128","-","-","-","295.2","K","-","-","-","-","22.2","Celsius","-","-","-","-","","-",""
"CCC=1N(C)C=C[N+]1COC.FC(F)(F)S(=O)(=O)[N-]S(=O)(=O)C(F)(F)F","-","-","AUTO_308","-","A138128","-","-","-","287.2","K","-","-","-","-","14.2","Celsius","-","-","-","-","","-",""