"SMILES","CASRN","EXTERNALID","N","NAME","ARTICLEID","PUBMEDID","PAGE","TABLE","Melting Point","UNIT {Melting Point}","Decomposition","UNIT {Decomposition}","Glass-transition temperature (Tg)","UNIT {Glass-transition temperature (Tg)}","Melting Point {measured, converted}","UNIT {Melting Point}","Decomposition {measured, converted}","UNIT {Decomposition}","Glass-transition temperature (Tg) {measured, converted}","UNIT {Glass-transition temperature (Tg)}","weight loss","UNIT {weight loss}","Solvent"
"CCCC[N+](CCCC)(CCCC)CCCC.FC(F)(F)C1=CC(=CC(=C1)[B-](C2=CC(=CC(=C2)C(F)(F)F)C(F)(F)F)(C3=CC(=CC(=C3)C(F)(F)F)C(F)(F)F)C4=CC(=CC(=C4)C(F)(F)F)C(F)(F)F)C(F)(F)F","-","-","AUTO_5291","-","A135195","-","-","-","92.0","Celsius","-","-","-","-","92.0","Celsius","-","-","-","-","","-",""
"[O-]S(=O)(=O)C(F)(F)F.CCN1C=C([N+](C)=C1)N(=O)=O","-","-","AUTO_5315","-","A135195","-","-","-","92.0","Celsius","-","-","-","-","92.0","Celsius","-","-","-","-","","-",""
"CS([O-])(=O)=O.CCCCCC[N+]1=C(C)C=C(C)N1C","-","-","AUTO_5320","-","A135195","-","-","-","92.0","Celsius","-","-","-","-","92.0","Celsius","-","-","-","-","","-",""
"CC[N+](C)(CC)CC.F[B-](C#N)(C#N)C#N","-","-","AUTO_5364","-","A135195","-","-","-","93.0","Celsius","-","-","-","-","93.0","Celsius","-","-","-","-","","-",""
"[O-]C(=O)C([O-])=O.CCCC[P+](CCCC)(CCCC)CCCC","-","-","AUTO_5366","-","A135195","-","-","-","93.0","Celsius","-","-","-","-","93.0","Celsius","-","-","-","-","","-",""
"[NH3+]C(=O)C1=CC=CN=C1.CC(C)CC1=CC=C(C=C1)C(C)C([O-])=O","-","-","AUTO_5402","-","A135195","-","-","","93.8","Celsius","-","-","-","-","93.8","Celsius","-","-","-","-","","-",""
"[I-].CN1C=C[N+](CCC(F)(F)C(F)(F)C(F)(F)C(F)(F)C(F)(F)C(F)(F)F)=C1","-","-","AUTO_5408","-","A135195","-","-","-","94.0","Celsius","-","-","-","-","94.0","Celsius","-","-","-","-","","-",""
"[Br-].CCC[N+]1=CN(C=C1)C2=CC=CC=C2","-","-","AUTO_5416","-","A135195","-","-","-","94.0","Celsius","-","-","-","-","94.0","Celsius","-","-","-","-","","-",""
"CC1=CC=C(C=C1)S([O-])(=O)=O.CCCCCCCCCCCCCCCCCCCCCC[N+]1=CC=C(C=C1)C2=CC=CC=C2","-","-","AUTO_5420","-","A135195","-","-","-","94.0","Celsius","-","-","-","-","94.0","Celsius","-","-","-","-","","-",""
"[Br-].CCCCCCN1C=CC=[N+]1CCCCCC","-","-","AUTO_5432","-","A135195","-","-","-","94.2","Celsius","-","-","-","-","94.2","Celsius","-","-","-","-","","-",""
"FP(F)(F)(F)(F)F.N#CCCC[N+]1=CC=CC=C1","-","-","AUTO_5473","-","A135195","-","-","-","95.0","Celsius","-","-","-","-","95.0","Celsius","-","-","-","-","","-",""
"F[B-](F)(F)F.CCCCCCCCCCCCCCOC(=O)C[N+](C)(C)C","-","-","AUTO_5542","-","A135195","-","-","-","96.0","Celsius","-","-","-","-","96.0","Celsius","-","-","-","-","","-",""
"[Br-].CCCCCCCCCCCC[N+]1=CN(C=C1)C2=CC=C(C=C2)N(=O)=O","-","-","AUTO_5545","-","A135195","-","-","-","96.0","Celsius","-","-","-","-","96.0","Celsius","-","-","-","-","","-",""
"[Br-].C[N+]1(CC#N)CCCC1","-","-","AUTO_5670","-","A135195","-","-","-","99.0","Celsius","-","-","-","-","99.0","Celsius","-","-","-","-","","-",""
"[Cl-].N#CCCCN1C=C[N+](CCCC#N)=C1","-","-","AUTO_5709","-","A135195","-","-","-","100.0","Celsius","-","-","-","-","100.0","Celsius","-","-","-","-","","-",""
"[S-]C#N.CCCC[N+](C)(CCCC)CCCC","-","-","AUTO_5711","-","A135195","-","-","-","100.0","Celsius","-","-","-","-","100.0","Celsius","-","-","-","-","","-",""
"[Br-].CC[N+](C)(C)CCOC(=O)C(C)=C","-","-","AUTO_5843","-","A135195","-","-","-","103.0","Celsius","-","-","-","-","103.0","Celsius","-","-","-","-","","-",""
"[Br-].CCCCCCCN1C=C[N+](=C1)C2=C(OC)C=CC=C2","-","-","AUTO_5995","-","A135195","-","-","-","106.0","Celsius","-","-","-","-","106.0","Celsius","-","-","-","-","","-",""
"COS([O-])(=O)=O.CSC(=O)C1=CC=CC2=C1SN=[N+]2C","-","-","AUTO_6058","-","A135195","-","-","-","108.0","Celsius","-","-","-","-","108.0","Celsius","-","-","-","-","","-",""
"[Br-].CCN1C(C)=C(C)[N+](CC=C)=C1C(C)C","-","-","AUTO_6094","-","A135195","-","-","-","109.0","Celsius","-","-","-","-","109.0","Celsius","-","-","-","-","","-",""
"[Br-].CCCC[N+]1(C)CCOC1","-","-","AUTO_6155","-","A135195","-","-","-","110.0","Celsius","-","-","-","-","110.0","Celsius","-","-","-","-","","-",""
"[I-].CC[N+]1=CC=C(C=C1)C(=O)OC","-","-","AUTO_6189","-","A135195","-","-","-","111.0","Celsius","-","-","-","-","111.0","Celsius","-","-","-","-","","-",""
"[Br-].CC[N+]1=CN(C=C1)C2=CC=CC=C2","-","-","AUTO_6192","-","A135195","-","-","-","111.0","Celsius","-","-","-","-","111.0","Celsius","-","-","-","-","","-",""
"[Br-].CCCCCC[N+]1=CN(C=C1)C2=C(C)C=C(C)C=C2C","-","-","AUTO_6324","-","A135195","-","-","-","114.0","Celsius","-","-","-","-","114.0","Celsius","-","-","-","-","","-",""
"[Br-].CCCCC[N+]1=CN(C=C1)C2=CC=CC=C2","-","-","AUTO_6432","-","A135195","-","-","-","116.0","Celsius","-","-","-","-","116.0","Celsius","-","-","-","-","","-",""
"[I-].CCCCN1C=C[N+](=C1)C2=CC=C(Br)C=C2","-","-","AUTO_6549","-","A135195","-","-","-","118.6","Celsius","-","-","-","-","118.6","Celsius","-","-","-","-","","-",""
"[Br-].CCCCCCCCCCC[N+]1=CN(C=C1)C2=C(C)C=CC=C2","-","-","AUTO_6575","-","A135195","-","-","-","119.0","Celsius","-","-","-","-","119.0","Celsius","-","-","-","-","","-",""
"[Br-].CCCCCC[N+]1=CN(C=N1)C2=CC=CC=C2","-","-","AUTO_6664","-","A135195","-","-","-","120.9","Celsius","-","-","-","-","120.9","Celsius","-","-","-","-","","-",""
"[I-].CCCCCC[N+]1=CN(CC2=CC=C(/C=C/C3=CC=CC=C3)C=C2)C=C1","-","-","AUTO_6818","-","A135195","-","-","-","124.2","Celsius","-","-","-","-","124.2","Celsius","-","-","-","-","","-",""
"[Cl-].C(C1=CC=CC=C1)[N+]2=CC=CC=C2","-","-","AUTO_6839","-","A135195","-","-","-","125.0","Celsius","-","-","-","-","125.0","Celsius","-","-","-","-","","-",""
"[I-].C[N+]1(CCC#N)CCCC1","-","-","AUTO_6898","-","A135195","-","-","-","126.0","Celsius","-","-","-","-","126.0","Celsius","-","-","-","-","","-",""
"[I-].CCCCCC[N+]1=CSC2=CC=CC=C12","-","-","AUTO_6923","-","A135195","-","-","-","126.7","Celsius","-","-","-","-","126.7","Celsius","-","-","-","-","","-",""
"FP(F)(F)(F)(F)F.CCCC[N+]1=CN(C=C1)C2=C(C)C=C(C)C=C2C","-","-","AUTO_6936","-","A135195","-","-","-","127.0","Celsius","-","-","-","-","127.0","Celsius","-","-","-","-","","-",""
"[Br-].CC(C#N)[N+]1=CN(C)C=C1","-","-","AUTO_7101","-","A135195","-","-","-","131.0","Celsius","-","-","-","-","131.0","Celsius","-","-","-","-","","-",""
"[BH4-].CC(C)C[N+]1(C)CCCC1","-","-","AUTO_7103","-","A135195","-","-","-","131.0","Celsius","-","-","-","-","131.0","Celsius","-","-","-","-","","-",""
"[O-]N(=O)=O.N#CCN1C=[N+](CC#N)C=N1","-","-","AUTO_7175","-","A135195","-","-","-","133.0","Celsius","-","-","-","-","133.0","Celsius","-","-","-","-","","-",""
"[I-].CCCCCCCCCCCC[N+]1=CN(C=C1)C2=C3C=CC=CC3=CC4=CC=CC=C24","-","-","AUTO_7191","-","A135195","-","-","-","133.6","Celsius","-","-","-","-","133.6","Celsius","-","-","-","-","","-",""
"[I-].CCN1C(C)=C(C)[N+](C)=C1C","-","-","AUTO_7219","-","A135195","-","-","-","134.0","Celsius","-","-","-","-","134.0","Celsius","-","-","-","-","","-",""
"F[B-](F)(F)F.CCCC[P+](C)(CCCC)CCCC","-","-","AUTO_7426","-","A135195","-","-","-","140.0","Celsius","-","-","-","-","140.0","Celsius","-","-","-","-","","-",""
"[I-].C[N+]1=CN=CC=C1","-","-","AUTO_7479","-","A135195","-","-","-","142.0","Celsius","-","-","-","-","142.0","Celsius","-","-","-","-","","-",""
"FC(F)(F)S(=O)(=O)[N-]S(=O)(=O)C(F)(F)F.O=S(=O)(C1=CC=CC=C1)C2=CC=C(C=C2)[P+](C3=CC=CC=C3)(C4=CC=CC=C4)C5=CC=CC=C5","-","-","AUTO_7517","-","A135195","-","-","-","143.0","Celsius","-","-","-","-","143.0","Celsius","-","-","-","-","","-",""
"FP(F)(F)(F)(F)F.CCCCCCCCCCCC[N+]1=CC=C(C=C1)C#N","-","-","AUTO_7617","-","A135195","-","-","-","146.0","Celsius","-","-","-","-","146.0","Celsius","-","-","-","-","","-",""
"[Br-].C[N+](C)(CC=C)C1=CC=C(Br)C=C1","-","-","AUTO_7693","-","A135195","-","-","-","148.0","Celsius","-","-","-","-","148.0","Celsius","-","-","-","-","","-",""
"[Cl-].CC(=O)OCC[N+](C)(C)C","-","-","AUTO_7815","-","A135195","-","-","-","151.0","Celsius","-","-","-","-","151.0","Celsius","-","-","-","-","","-",""
"[I-].CC1=[N+](C)C=CC=C1","-","-","AUTO_7933","-","A135195","-","-","-","155.0","Celsius","-","-","-","-","155.0","Celsius","-","-","-","-","","-",""
"[Br-].CCC[N+]1=CN(C=C1)C2=CC=C(Br)C=C2","-","-","AUTO_7943","-","A135195","-","-","-","155.0","Celsius","-","-","-","-","155.0","Celsius","-","-","-","-","","-",""
"C[N+](C)(C)CCO.[O-]C(=O)CSC1=CNC2=CC=CC=C12","-","-","AUTO_7948","-","A135195","-","-","-","155.0","Celsius","-","-","-","-","155.0","Celsius","-","-","-","-","","-",""
"[I-].CCCCCCCC[N+]1=CN(C=C1)C2=CC3=C(C=C2)C4=C(C3)C=CC=C4","-","-","AUTO_8109","-","A135195","-","-","-","160.2","Celsius","-","-","-","-","160.2","Celsius","-","-","-","-","","-",""
"[Br-].CC(C)(C)C1=CC=[N+](CC2=CC=CC=C2)C=C1","-","-","AUTO_8190","-","A135195","-","-","-","163.0","Celsius","-","-","-","-","163.0","Celsius","-","-","-","-","","-",""
"F[B-](F)(F)F.CN1C(C)=CC(C)=[N+]1C2=CC=C(C=C2)N(=O)=O","-","-","AUTO_8294","-","A135195","-","-","-","166.5","Celsius","-","-","-","-","166.5","Celsius","-","-","-","-","","-",""
"[Br-].CC1=C(C)N=C(S1)N2N=C(N=[N+]2C3=CC=CC=C3)C4=CC=CC=C4","-","-","AUTO_8436","-","A135195","-","-","-","171.0","Celsius","-","-","-","-","171.0","Celsius","-","-","-","-","","-",""
"F[B-](F)(F)F.CC1=CC(C)=C(C(C)=C1)[N+]2=CN(C=C2)C3CCCCCCC3","-","-","AUTO_8576","-","A135195","-","-","-","175.0","Celsius","-","-","-","-","175.0","Celsius","-","-","-","-","","-",""
"[I-].CC[N+](CC)(CC)CC","-","-","AUTO_8782","-","A135195","-","-","-","182.0","Celsius","-","-","-","-","182.0","Celsius","-","-","-","-","","-",""
"[Br-].CCCCCCCCCCCC[N+]1(C)CCCC1","-","-","AUTO_8899","-","A135195","-","-","-","186.0","Celsius","-","-","-","-","186.0","Celsius","-","-","-","-","","-",""
"[Br-].CC[N+]1=CN(C=N1)C2=CC=CC=C2","-","-","AUTO_8922","-","A135195","-","-","-","187.0","Celsius","-","-","-","-","187.0","Celsius","-","-","-","-","","-",""
"[I-].CCCCCCCCCCCCCCCCCC[N+]1=CC=C(/C=C/C2=CC=CC=C2)C=C1","-","-","AUTO_8961","-","A135195","-","-","-","189.0","Celsius","-","-","-","-","189.0","Celsius","-","-","-","-","","-",""
"[I-].CC[N+]1(CCCC#N)CCCC1","-","-","AUTO_9005","-","A135195","-","-","-","190.0","Celsius","-","-","-","-","190.0","Celsius","-","-","-","-","","-",""
"[Br-].CC[N+]1=CN(C=C1)C2=C(C)C=C(C)C=C2C","-","-","AUTO_9024","-","A135195","-","-","-","191.0","Celsius","-","-","-","-","191.0","Celsius","-","-","-","-","","-",""
"[Br-].CC[N+](CC)(CC)CC1=CC=CC=C1","-","-","AUTO_9130","-","A135195","-","-","-","195.0","Celsius","-","-","-","-","195.0","Celsius","-","-","-","-","","-",""
"[Cl-].OC(=O)C[N+]1=CC=CC2=CC=CC=C12","-","-","AUTO_9167","-","A135195","-","-","-","196.0","Celsius","-","-","-","-","196.0","Celsius","-","-","-","-","","-",""
"[I-].CC1=CC=C(C=C1)[N+](C)(C)CC=C","-","-","AUTO_9188","-","A135195","-","-","-","197.0","Celsius","-","-","-","-","197.0","Celsius","-","-","-","-","","-",""
"[Cl-].CN1C=C[N+](C)=C1P(C2=CC=CC=C2)C3=CC=CC=C3","-","-","AUTO_9291","-","A135195","-","-","-","200.0","Celsius","-","-","-","-","200.0","Celsius","-","-","-","-","","-",""
"[Br-].BrCCC[P+](C1=CC=CC=C1)(C2=CC=CC=C2)C3=CC=CC=C3","-","-","AUTO_9725","-","A135195","-","-","-","217.0","Celsius","-","-","-","-","217.0","Celsius","-","-","-","-","","-",""
"[Cl-].C(C1=CC=CC=C1)[P+](C2=CC=CC=C2)(C3=CC=CC=C3)C4=CC=CC=C4","-","-","AUTO_9947","-","A135195","-","-","-","228.0","Celsius","-","-","-","-","228.0","Celsius","-","-","-","-","","-",""
"[Br-].CC1=CC=C(C[P+](C2=CC=CC=C2)(C3=CC=CC=C3)C4=CC=CC=C4)C=C1","-","-","AUTO_10164","-","A135195","-","-","-","238.0","Celsius","-","-","-","-","238.0","Celsius","-","-","-","-","","-",""
"[Br-].CCCC[N+]1(C)CCCCC1","-","-","AUTO_10224","-","A135195","-","-","-","240.66","Celsius","-","-","-","-","240.66","Celsius","-","-","-","-","","-",""
"NC(N)=[NH2+].OS([O-])(=O)=O","-","-","AUTO_11979","-","A135195","-","-","","101.0","Celsius","-","-","-","-","101.0","Celsius","-","-","-","-","","-",""
"FP(F)(F)(F)(F)F.CC(C)[C@@H]1CC[C@@H](C)C[C@H]1OC(=O)C[N+]2=CN(C)C3=CC=CC=C23","-","-","AUTO_12037","-","A135195","-","-","-","102.0 - 104.0","Celsius","-","-","-","-","103.0","Celsius","-","-","-","-","","-",""
"[Br-].CCCCCCCCCCCCCCCCCCCC[N+]12CCN(CC1)CC2","-","-","AUTO_12064","-","A135195","-","-","-","103.0 - 104.0","Celsius","-","-","-","-","103.5","Celsius","-","-","-","-","","-",""
"[Br-].CCCCCCCOC(=O)C[N+](C)(C)C","-","-","AUTO_12081","-","A135195","-","-","-","103.0 - 105.0","Celsius","-","-","-","-","104.0","Celsius","-","-","-","-","","-",""
"[Br-].CCCCCCCCCCOC(=O)C[N+](C)(C)C","-","-","AUTO_12082","-","A135195","-","-","-","103.0 - 105.0","Celsius","-","-","-","-","104.0","Celsius","-","-","-","-","","-",""
"[Br-].CCCCCCCCCCN1C=C[N+](=C1)C2=C(C)C=C(C)C=C2C","-","-","AUTO_12149","-","A135195","-","-","-","105.0 - 106.0","Celsius","-","-","-","-","105.5","Celsius","-","-","-","-","","-",""
"F[B-](F)(F)F.CC1=CC=C(C=C1)[N+]#N","-","-","AUTO_12157","-","A135195","-","-","","105.0","Celsius","-","-","-","-","105.0","Celsius","-","-","-","-","","-",""
"[Br-].CCCCCCCCCCOC(=O)[C@H](CC1=CC=CC=C1)NC(=O)C[N+]2=CC=CC=C2","-","-","AUTO_12167","-","A135195","-","-","-","105.0 - 107.0","Celsius","-","-","-","-","106.0","Celsius","-","-","-","-","","-",""
"[Br-].CN1C=C[N+](CCOC2=CC=CC=C2C=O)=C1","-","-","AUTO_12205","-","A135195","-","-","-","106.0 - 108.0","Celsius","-","-","-","-","107.0","Celsius","-","-","-","-","","-",""
"[Cl-].CC(C)[C@@H]1CC[C@@H](C)C[C@H]1OC[N+]2=CC=C(C)C=C2","-","-","AUTO_12210","-","A135195","-","-","-","106.0 - 108.0","Celsius","-","-","-","-","107.0","Celsius","-","-","-","-","","-",""
"CC1=CC=C(C=C1)S([O-])(=O)=O.C([NH+]1C=CN=C1)C2=CC=CC=C2","-","-","AUTO_12217","-","A135195","-","-","","106.0","Celsius","-","-","-","-","106.0","Celsius","-","-","-","-","","-",""
"F[B-](F)(F)F.CC[S+](CC)CC","-","-","AUTO_12344","-","A135195","-","-","","110.0","Celsius","-","-","-","-","110.0","Celsius","-","-","-","-","","-",""
"[Br-].CC[N+](CC)(CC)CCCCBr","-","-","AUTO_12391","-","A135195","-","-","-","110.0 - 120.0","Celsius","-","-","-","-","115.0","Celsius","-","-","-","-","","-",""
"CC1=CC=C(C=C1)S([O-])(=O)=O.CCCC[N+]1(CCCC)CCCCC1","-","-","AUTO_12409","-","A135195","-","-","-","111.0 - 112.0","Celsius","-","-","-","-","111.5","Celsius","-","-","-","-","","-",""
"[I-].CCCC[N+](C)(C)C(C)CC(F)(F)F","-","-","AUTO_12414","-","A135195","-","-","-","111.0 - 114.0","Celsius","-","-","-","-","112.5","Celsius","-","-","-","-","","-",""
"F[B-](F)(F)F.N#[N+]C1=CC=CC=C1OC2=CC=CC=C2","-","-","AUTO_12425","-","A135195","-","-","","112.0","Celsius","-","-","-","-","112.0","Celsius","-","-","-","-","","-",""
"OP(O)([O-])=O.CC(C)(C)C(O)(CCC1=CC=C(Cl)C=C1)C[NH+]2C=NC=N2","-","-","AUTO_12449","-","A135195","-","-","","112.0","Celsius","-","-","-","-","112.0","Celsius","-","-","-","-","","-",""
"[Br-].CCCCCCCCCCNC(=O)CCCCC[N+]1=CC=CC=C1","-","-","AUTO_12463","-","A135195","-","-","-","113.0 - 114.0","Celsius","-","-","-","-","113.5","Celsius","-","-","-","-","","-",""
"CC1=CC=C(C=C1)S([O-])(=O)=O.CCCCC[N+]1(CCCCC)CCCCC1","-","-","AUTO_12500","-","A135195","-","-","-","114.0 - 115.0","Celsius","-","-","-","-","114.5","Celsius","-","-","-","-","","-",""
"[H][P-](F)(F)(C(F)(F)C(F)(F)F)(C(F)(F)C(F)(F)F)C(F)(F)C(F)(F)F.C1=CC=C(C=C1)[P+](C2=CC=CC=C2)(C3=CC=CC=C3)C4=CC=CC=C4","-","-","AUTO_12506","-","A135195","-","-","-","114.0 - 116.0","Celsius","-","-","-","-","115.0","Celsius","-","-","-","-","","-",""
"[Cl-].CC1=CC=C(C=C1)[N+]2=CC=CC=C2","-","-","AUTO_12561","-","A135195","-","-","-","115.4 - 116.8","Celsius","-","-","-","-","116.1","Celsius","-","-","-","-","","-",""
"F[B-](F)(F)F.[C@H]1(C[C@H](CN1)OC(=O)CCCCN2C=C[N+](CCCCCCCCCCCC)=C2)C(O)=O","-","-","AUTO_12628","-","A135195","-","-","-","117.0 - 119.0","Celsius","-","-","-","-","118.0","Celsius","-","-","-","-","","-",""
"[Br-].CCOC(=O)CCC[N+]1(C)CCCC1","-","-","AUTO_12653","-","A135195","-","-","-","118.0 - 119.0","Celsius","-","-","-","-","118.5","Celsius","-","-","-","-","","-",""
"[Br-].CCCCCCCCCCCCNC(=O)CCCCC[N+]1=CC=CC=C1","-","-","AUTO_12657","-","A135195","-","-","-","118.0 - 119.0","Celsius","-","-","-","-","118.5","Celsius","-","-","-","-","","-",""
"[Br-].COCCN(CCOC)C(=O)C[N+]1=C(C)N(C)C=C1","-","-","AUTO_12705","-","A135195","-","-","-","119.0 - 120.0","Celsius","-","-","-","-","119.5","Celsius","-","-","-","-","","-",""
"C[N+](C)(C)C.FC(F)(F)[N-]C(F)(F)F","-","-","AUTO_12777","-","A135195","-","-","-","120.0 - 125.0","Celsius","-","-","-","-","122.5","Celsius","-","-","-","-","","-",""
"F[B-](F)(F)F.CN1C=C[N+](CC2=CC(=O)C=C(O2)C3=CC=CC=C3)=C1","-","-","AUTO_12855","-","A135195","-","-","-","123.0 - 124.0","Celsius","-","-","-","-","123.5","Celsius","-","-","-","-","","-",""
"[Br-].CCCCCCC[N+]1=CC=C(C=C1)C2=CC=NC=C2","-","-","AUTO_12878","-","A135195","-","-","-","123.5 - 125.0","Celsius","-","-","-","-","124.25","Celsius","-","-","-","-","","-",""
"CC1=CC=C(C=C1)S([O-])(=O)=O.CC[N+](CC)(CC)CC1=CC=CC=C1","-","-","AUTO_12881","-","A135195","-","-","-","124.0 - 124.5","Celsius","-","-","-","-","124.25","Celsius","-","-","-","-","","-",""
"[O-]N(=O)=O.C[N+](C)(N)N","-","-","AUTO_12930","-","A135195","-","-","-","125.0 - 126.0","Celsius","-","-","-","-","125.5","Celsius","-","-","-","-","","-",""
"F[B-](F)(F)F.IC1=CC=C(C[N+]2=CC=CC=C2)C=C1","-","-","AUTO_13034","-","A135195","-","-","","127.3","Celsius","-","-","-","-","127.3","Celsius","-","-","-","-","","-",""
"[I-].CC1=CSC=[N+]1C","-","-","AUTO_13045","-","A135195","-","-","-","128.0 - 129.0","Celsius","-","-","-","-","128.5","Celsius","-","-","-","-","","-",""
"F[B-](F)(F)F.FC1=CC=C(C=C1)N=CC2=CC=C[N+](CC(=O)C3=CC=C(C=C3)N(=O)=O)=C2","-","-","AUTO_13098","-","A135195","-","-","","129.0","Celsius","-","-","-","-","129.0","Celsius","-","-","-","-","","-",""
"[Br-].CCOC(=O)C[N+]1=C(C)N(C)C=C1","-","-","AUTO_13128","-","A135195","-","-","-","130.0 - 131.0","Celsius","-","-","-","-","130.5","Celsius","-","-","-","-","","-",""
"[Br-].C[NH2+]C","-","-","AUTO_13247","-","A135195","-","-","","133.0","Celsius","-","-","-","-","133.0","Celsius","-","-","-","-","","-",""
"[I-].CN1[NH2+]N(CC2=CC=CC=C2)C=C1C3=CC=CC=C3","-","-","AUTO_13251","-","A135195","-","-","-","133.0 - 135.0","Celsius","-","-","-","-","134.0","Celsius","-","-","-","-","","-",""
"F[P-](F)(F)(F)(F)F.C(N1C=C[N+](CN2N=NC3=CC=CC=C23)=C1)C4=CC=CC=N4","-","-","AUTO_13298","-","A135195","-","-","-","134.0 - 136.0","Celsius","-","-","-","-","135.0","Celsius","-","-","-","-","","-",""
"[Br-].CC[N+]1=C2CCCN2C=C1","-","-","AUTO_13342","-","A135195","-","-","-","135.0 - 138.0","Celsius","-","-","-","-","136.5","Celsius","-","-","-","-","","-",""
"[I-].CCCC[N+]1=CC=CC(=C1)C#N","-","-","AUTO_13413","-","A135195","-","-","-","137.0 - 138.5","Celsius","-","-","-","-","137.75","Celsius","-","-","-","-","","-",""
"FP(F)(F)(F)(F)F.CC1=N[N+](C)=C(C)N1N","-","-","AUTO_13691","-","A135195","-","-","-","144.0 - 145.0","Celsius","-","-","-","-","144.5","Celsius","-","-","-","-","","-",""
"[Br-].C[N+](C)(C)CCCCCBr","-","-","AUTO_13696","-","A135195","-","-","-","144.0 - 146.0","Celsius","-","-","-","-","145.0","Celsius","-","-","-","-","","-",""
"[I-].CSC1=[N+](C)C=CS1","-","-","AUTO_13709","-","A135195","-","-","-","144.0 - 147.0","Celsius","-","-","-","-","145.5","Celsius","-","-","-","-","","-",""
"[I-].CC[N+]1=CSC2=C1C=CC=C2","-","-","AUTO_13740","-","A135195","-","-","-","145.0 - 147.0","Celsius","-","-","-","-","146.0","Celsius","-","-","-","-","","-",""
"F[B-](F)(F)F.CC1=CC(C)=C(N2CC[N+](=C2C(F)=C(F)F)C3=C(C)C=C(C)C=C3C)C(C)=C1","-","-","AUTO_13896","-","A135195","-","-","-","148.0 - 151.0","Celsius","-","-","-","-","149.5","Celsius","-","-","-","-","","-",""
"F[B-](F)(F)F.COC1=CC=C(C(C)[P+](C2=CC=CC=C2)(C3=CC=CC=C3)C4=CC=CC=C4)C(OC)=C1","-","-","AUTO_14041","-","A135195","-","-","-","151.0 - 153.0","Celsius","-","-","-","-","152.0","Celsius","-","-","-","-","","-",""
"[I-].CN1C=CC=[N+]1C","-","-","AUTO_14150","-","A135195","-","-","-","154.0 - 156.0","Celsius","-","-","-","-","155.0","Celsius","-","-","-","-","","-",""