"SMILES","CASRN","EXTERNALID","N","NAME","ARTICLEID","PUBMEDID","PAGE","TABLE","Melting Point","UNIT {Melting Point}","Decomposition","UNIT {Decomposition}","Glass-transition temperature (Tg)","UNIT {Glass-transition temperature (Tg)}","Melting Point {measured, converted}","UNIT {Melting Point}","Decomposition {measured, converted}","UNIT {Decomposition}","Glass-transition temperature (Tg) {measured, converted}","UNIT {Glass-transition temperature (Tg)}","weight loss","UNIT {weight loss}","Solvent"
"CCC=1N(CC)C=C[N+]1COC.FC(F)(F)S(=O)(=O)[N-]S(=O)(=O)C(F)(F)F","-","-","AUTO_309","-","A138128","-","-","-","292.2","K","-","-","-","-","19.2","Celsius","-","-","-","-","","-",""
"CCCN1C=C[N+](COC)=C1C.FC(F)(F)S(=O)(=O)[N-]S(=O)(=O)C(F)(F)F","-","-","AUTO_310","-","A138128","-","-","-","294.2","K","-","-","-","-","21.2","Celsius","-","-","-","-","","-",""
"CCN1C=C[N+](C)=C1SC.FC(F)(F)S(=O)(=O)[N-]S(=O)(=O)C(F)(F)F","-","-","AUTO_311","-","A138128","-","-","-","260.2","K","-","-","-","-","-12.8","Celsius","-","-","-","-","","-",""
"CCN1C=C[N+](C)=C1SC(C)C.FC(F)(F)S(=O)(=O)[N-]S(=O)(=O)C(F)(F)F","-","-","AUTO_312","-","A138128","-","-","-","284.2","K","-","-","-","-","11.2","Celsius","-","-","-","-","","-",""
"CC=1N(C)C=C[N+]1C[Si](C)(C)C.FC(F)(F)S(=O)(=O)[N-]S(=O)(=O)C(F)(F)F","-","-","AUTO_313","-","A138128","-","-","-","314.7","K","-","-","-","-","41.7","Celsius","-","-","-","-","","-",""
"CCC[N+]1=C(C)C=C(C)N1C.FC(F)(F)S(=O)(=O)[N-]S(=O)(=O)C(F)(F)F","-","-","AUTO_314","-","A138128","-","-","-","290.2","K","-","-","-","-","17.2","Celsius","-","-","-","-","","-",""
"CCCCCCCCN1C=C[N+](C)=N1.FC(F)(F)S(=O)(=O)[N-]S(=O)(=O)C(F)(F)F","-","-","AUTO_315","-","A138128","-","-","-","248.5","K","-","-","-","-","-24.5","Celsius","-","-","-","-","","-",""
"CCCCCCCCCCN1C=C[N+](C)=N1.FC(F)(F)S(=O)(=O)[N-]S(=O)(=O)C(F)(F)F","-","-","AUTO_316","-","A138128","-","-","-","274.8","K","-","-","-","-","1.8","Celsius","-","-","-","-","","-",""
"CCCCCCCCCCCCN1C=C[N+](C)=N1.FC(F)(F)S(=O)(=O)[N-]S(=O)(=O)C(F)(F)F","-","-","AUTO_317","-","A138128","-","-","-","290.6","K","-","-","-","-","17.6","Celsius","-","-","-","-","","-",""
"C[N+]1=NN(CC2=CC=CC=C2)C=C1C3=CC=CC=C3.FC(F)(F)S(=O)(=O)[N-]S(=O)(=O)C(F)(F)F","-","-","AUTO_318","-","A138128","-","-","-","354.2","K","-","-","-","-","81.2","Celsius","-","-","-","-","","-",""
"CCCCCCC1=CN(N=[N+]1C)C2=CC=CC=C2.FC(F)(F)S(=O)(=O)[N-]S(=O)(=O)C(F)(F)F","-","-","AUTO_319","-","A138128","-","-","-","344.2","K","-","-","-","-","71.2","Celsius","-","-","-","-","","-",""
"CCCCCCCCCCN1C=[N+](C)C=N1.FC(F)(F)S(=O)(=O)[N-]S(=O)(=O)C(F)(F)F","-","-","AUTO_320","-","A138128","-","-","-","276.1","K","-","-","-","-","3.1","Celsius","-","-","-","-","","-",""
"CCCCCCCCCCCCN1C=[N+](C)C=N1.FC(F)(F)S(=O)(=O)[N-]S(=O)(=O)C(F)(F)F","-","-","AUTO_321","-","A138128","-","-","-","293.0","K","-","-","-","-","20.0","Celsius","-","-","-","-","","-",""
"CCCCCCC[N+]1=CC=CC=C1.FC(F)(F)S(=O)(=O)[N-]S(=O)(=O)C(F)(F)F","-","-","AUTO_327","-","A138128","-","-","-","272.0","K","-","-","-","-","-1.0","Celsius","-","-","-","-","","-",""
"CCCCCCCC[N+]1=CC=CC=C1.FC(F)(F)S(=O)(=O)[N-]S(=O)(=O)C(F)(F)F","-","-","AUTO_328","-","A138128","-","-","-","261.2","K","-","-","-","-","-11.8","Celsius","-","-","-","-","","-",""
"CCCCCCCCCC[N+]1=CC=CC=C1.FC(F)(F)S(=O)(=O)[N-]S(=O)(=O)C(F)(F)F","-","-","AUTO_329","-","A138128","-","-","-","274.0","K","-","-","-","-","1.0","Celsius","-","-","-","-","","-",""
"C(C1=CC=CC=C1)[N+]2=CC=CC=C2.FC(F)(F)S(=O)(=O)[N-]S(=O)(=O)C(F)(F)F","-","-","AUTO_330","-","A138128","-","-","-","279.6","K","-","-","-","-","6.6","Celsius","-","-","-","-","","-",""
"C(C1CCCCC1)[N+]2=CC=CC=C2.FC(F)(F)S(=O)(=O)[N-]S(=O)(=O)C(F)(F)F","-","-","AUTO_331","-","A138128","-","-","-","314.9","K","-","-","-","-","41.9","Celsius","-","-","-","-","","-",""
"CCC[N+]1=CC=CC(C)=C1.FC(F)(F)S(=O)(=O)[N-]S(=O)(=O)C(F)(F)F","-","-","AUTO_332","-","A138128","-","-","-","273.2","K","-","-","-","-","0.2","Celsius","-","-","-","-","","-",""
"CCCCCCCC[N+]1=CC=C(C)C=C1.FC(F)(F)S(=O)(=O)[N-]S(=O)(=O)C(F)(F)F","-","-","AUTO_334","-","A138128","-","-","-","280.2","K","-","-","-","-","7.2","Celsius","-","-","-","-","","-",""
"CC[N+]1=CC=CC=C1C#N.FC(F)(F)S(=O)(=O)[N-]S(=O)(=O)C(F)(F)F","-","-","AUTO_337","-","A138128","-","-","-","310.2","K","-","-","-","-","37.2","Celsius","-","-","-","-","","-",""
"CC[N+]1=CC=CC(=C1)C#N.FC(F)(F)S(=O)(=O)[N-]S(=O)(=O)C(F)(F)F","-","-","AUTO_338","-","A138128","-","-","-","346.2","K","-","-","-","-","73.2","Celsius","-","-","-","-","","-",""
"CC[N+]1=CC=C(C=C1)C#N.FC(F)(F)S(=O)(=O)[N-]S(=O)(=O)C(F)(F)F","-","-","AUTO_339","-","A138128","-","-","-","307.2","K","-","-","-","-","34.2","Celsius","-","-","-","-","","-",""
"CCCCCC[N+]1=CC=C(C=C1)C#N.FC(F)(F)S(=O)(=O)[N-]S(=O)(=O)C(F)(F)F","-","-","AUTO_340","-","A138128","-","-","-","281.7","K","-","-","-","-","8.7","Celsius","-","-","-","-","","-",""
"CCCCCCCC[N+]1=CC=CC(=C1)C#N.FC(F)(F)S(=O)(=O)[N-]S(=O)(=O)C(F)(F)F","-","-","AUTO_341","-","A138128","-","-","-","287.9","K","-","-","-","-","14.9","Celsius","-","-","-","-","","-",""
"CCCCCCCC[N+]1=CC=C(C=C1)C#N.FC(F)(F)S(=O)(=O)[N-]S(=O)(=O)C(F)(F)F","-","-","AUTO_342","-","A138128","-","-","-","303.2","K","-","-","-","-","30.2","Celsius","-","-","-","-","","-",""
"CC[N+]1=CC=C(C=C1)C(F)(F)F.FC(F)(F)S(=O)(=O)[N-]S(=O)(=O)C(F)(F)F","-","-","AUTO_345","-","A138128","-","-","-","302.7","K","-","-","-","-","29.7","Celsius","-","-","-","-","","-",""
"CCCC[N+]1=CC=C2C=CC=CC2=C1.FC(F)(F)S(=O)(=O)[N-]S(=O)(=O)C(F)(F)F","-","-","AUTO_347","-","A138128","-","-","-","321.0","K","-","-","-","-","48.0","Celsius","-","-","-","-","","-",""
"CCOC1=[N+](C)CCC1.FC(F)(F)S(=O)(=O)[N-]S(=O)(=O)C(F)(F)F","-","-","AUTO_350","-","A138128","-","-","-","311.6","K","-","-","-","-","38.6","Celsius","-","-","-","-","","-",""
"CC[N+]1=C(CCC1)OC.FC(F)(F)S(=O)(=O)[N-]S(=O)(=O)C(F)(F)F","-","-","AUTO_351","-","A138128","-","-","-","312.6","K","-","-","-","-","39.6","Celsius","-","-","-","-","","-",""
"CCOC1=[N+](CC)CCC1.FC(F)(F)S(=O)(=O)[N-]S(=O)(=O)C(F)(F)F","-","-","AUTO_352","-","A138128","-","-","-","302.2","K","-","-","-","-","29.2","Celsius","-","-","-","-","","-",""
"CCOC1=[N+](C)CCCCC1.FC(F)(F)S(=O)(=O)[N-]S(=O)(=O)C(F)(F)F","-","-","AUTO_353","-","A138128","-","-","-","317.6","K","-","-","-","-","44.6","Celsius","-","-","-","-","","-",""
"CCC[N+](C)(CC)CCC.FC(F)(F)S(=O)(=O)[N-]S(=O)(=O)C(F)(F)F","-","-","AUTO_361","-","A138128","-","-","-","295.2","K","-","-","-","-","22.2","Celsius","-","-","-","-","","-",""
"CCCC[N+](C)(C)C(C)C.FC(F)(F)S(=O)(=O)[N-]S(=O)(=O)C(F)(F)F","-","-","AUTO_364","-","A138128","-","-","-","283.0","K","-","-","-","-","10.0","Celsius","-","-","-","-","","-",""
"CCCC[N+](C)(CCCC)CCCC.FC(F)(F)S(=O)(=O)[N-]S(=O)(=O)C(F)(F)F","-","-","AUTO_365","-","A138128","-","-","-","300.0","K","-","-","-","-","27.0","Celsius","-","-","-","-","","-",""
"CCCCCCCCCC[N+](CC)(CC)CC.FC(F)(F)S(=O)(=O)[N-]S(=O)(=O)C(F)(F)F","-","-","AUTO_373","-","A138128","-","-","-","264.0","K","-","-","-","-","-9.0","Celsius","-","-","-","-","","-",""
"CCCCCCCCCC[N+](C)(C)C(C)C.FC(F)(F)S(=O)(=O)[N-]S(=O)(=O)C(F)(F)F","-","-","AUTO_374","-","A138128","-","-","-","270.0","K","-","-","-","-","-3.0","Celsius","-","-","-","-","","-",""
"CCCCCCCCCCCCCC[N+](CC)(CC)CC.FC(F)(F)S(=O)(=O)[N-]S(=O)(=O)C(F)(F)F","-","-","AUTO_376","-","A138128","-","-","-","294.3","K","-","-","-","-","21.3","Celsius","-","-","-","-","","-",""
"CC[N+](CC)(CC)CC1=CC=CC=C1.FC(F)(F)S(=O)(=O)[N-]S(=O)(=O)C(F)(F)F","-","-","AUTO_377","-","A138128","-","-","-","314.2","K","-","-","-","-","41.2","Celsius","-","-","-","-","","-",""
"CC[N+](CC)(CC)CCOC.FC(F)(F)S(=O)(=O)[N-]S(=O)(=O)C(F)(F)F","-","-","AUTO_380","-","A138128","-","-","-","293.2","K","-","-","-","-","20.2","Celsius","-","-","-","-","","-",""
"CCOCC[N+](CC)(CC)CC.FC(F)(F)S(=O)(=O)[N-]S(=O)(=O)C(F)(F)F","-","-","AUTO_381","-","A138128","-","-","-","279.9","K","-","-","-","-","6.9","Celsius","-","-","-","-","","-",""
"CCCC[N+](CCCC)(CCCC)CCOCC.FC(F)(F)S(=O)(=O)[N-]S(=O)(=O)C(F)(F)F","-","-","AUTO_382","-","A138128","-","-","-","283.25","K","-","-","-","-","10.25","Celsius","-","-","-","-","","-",""
"CCCCCCCCCC(=O)OCC[N+](C)(C)COC1CCCCCCCCCCC1.FC(F)(F)S(=O)(=O)[N-]S(=O)(=O)C(F)(F)F","-","-","AUTO_384","-","A138128","-","-","-","298.4","K","-","-","-","-","25.4","Celsius","-","-","-","-","","-",""
"C[N+](C)(C)CCCC#N.FC(F)(F)S(=O)(=O)[N-]S(=O)(=O)C(F)(F)F","-","-","AUTO_387","-","A138128","-","-","-","331.3","K","-","-","-","-","58.3","Celsius","-","-","-","-","","-",""
"COC=[N+](C)C.FC(F)(F)S(=O)(=O)[N-]S(=O)(=O)C(F)(F)F","-","-","AUTO_389","-","A138128","-","-","-","310.8","K","-","-","-","-","37.8","Celsius","-","-","-","-","","-",""
"CCOC=[N+](C)C.FC(F)(F)S(=O)(=O)[N-]S(=O)(=O)C(F)(F)F","-","-","AUTO_390","-","A138128","-","-","-","313.25","K","-","-","-","-","40.25","Celsius","-","-","-","-","","-",""
"CCOC(C)=[N+](C)C.FC(F)(F)S(=O)(=O)[N-]S(=O)(=O)C(F)(F)F","-","-","AUTO_391","-","A138128","-","-","-","306.3","K","-","-","-","-","33.3","Celsius","-","-","-","-","","-",""
"CCOC(C)=[N+](CC)CC.FC(F)(F)S(=O)(=O)[N-]S(=O)(=O)C(F)(F)F","-","-","AUTO_392","-","A138128","-","-","-","327.0","K","-","-","-","-","54.0","Celsius","-","-","-","-","","-",""
"C1CC[NH2+]C1.FC(F)(F)S(=O)(=O)[N-]S(=O)(=O)C(F)(F)F","-","-","AUTO_393","-","A138128","-","-","-","310.2","K","-","-","-","-","37.2","Celsius","-","-","-","-","","-",""
"C[NH+]1CCCC1.FC(F)(F)S(=O)(=O)[N-]S(=O)(=O)C(F)(F)F","-","-","AUTO_394","-","A138128","-","-","-","356.2","K","-","-","-","-","83.2","Celsius","-","-","-","-","","-",""
"CC(C)C[N+]1(C)CCCC1.FC(F)(F)S(=O)(=O)[N-]S(=O)(=O)C(F)(F)F","-","-","AUTO_399","-","A138128","-","-","-","276.73333333333335","K","-","-","-","-","3.733","Celsius","-","-","-","-","","-",""
"CCCC[N+]1(CC)CCCC1.FC(F)(F)S(=O)(=O)[N-]S(=O)(=O)C(F)(F)F","-","-","AUTO_400","-","A138128","-","-","-","258.2","K","-","-","-","-","-14.8","Celsius","-","-","-","-","","-",""
"CCCCCCC[N+]1(C)CCCC1.FC(F)(F)S(=O)(=O)[N-]S(=O)(=O)C(F)(F)F","-","-","AUTO_403","-","A138128","-","-","-","286.85","K","-","-","-","-","13.85","Celsius","-","-","-","-","","-",""
"CCCCCCCC[N+]1(C)CCCC1.FC(F)(F)S(=O)(=O)[N-]S(=O)(=O)C(F)(F)F","-","-","AUTO_404","-","A138128","-","-","-","260.6","K","-","-","-","-","-12.4","Celsius","-","-","-","-","","-",""
"CCCCCCCCCC[N+]1(C)CCCC1.FC(F)(F)S(=O)(=O)[N-]S(=O)(=O)C(F)(F)F","-","-","AUTO_405","-","A138128","-","-","-","283.5","K","-","-","-","-","10.5","Celsius","-","-","-","-","","-",""
"C[N+]1(CC=C)CCCC1.FC(F)(F)S(=O)(=O)[N-]S(=O)(=O)C(F)(F)F","-","-","AUTO_406","-","A138128","-","-","-","284.2","K","-","-","-","-","11.2","Celsius","-","-","-","-","","-",""
"C[N+]1(CC2CCCCC2)CCCC1.FC(F)(F)S(=O)(=O)[N-]S(=O)(=O)C(F)(F)F","-","-","AUTO_407","-","A138128","-","-","-","283.7","K","-","-","-","-","10.7","Celsius","-","-","-","-","","-",""
"CCCC[N+]1(C)CCCCC1.FC(F)(F)S(=O)(=O)[N-]S(=O)(=O)C(F)(F)F","-","-","AUTO_413","-","A138128","-","-","-","248.2","K","-","-","-","-","-24.8","Celsius","-","-","-","-","","-",""
"CC(C)C[N+]1(C)CCCCC1.FC(F)(F)S(=O)(=O)[N-]S(=O)(=O)C(F)(F)F","-","-","AUTO_414","-","A138128","-","-","-","287.9","K","-","-","-","-","14.9","Celsius","-","-","-","-","","-",""
"CCCC[N+]1(CC)CCCCC1.FC(F)(F)S(=O)(=O)[N-]S(=O)(=O)C(F)(F)F","-","-","AUTO_415","-","A138128","-","-","-","279.8","K","-","-","-","-","6.8","Celsius","-","-","-","-","","-",""
"C[N+]1(CC=C)CCCCC1.FC(F)(F)S(=O)(=O)[N-]S(=O)(=O)C(F)(F)F","-","-","AUTO_416","-","A138128","-","-","-","282.2","K","-","-","-","-","9.2","Celsius","-","-","-","-","","-",""
"CCCCCC[N+]1(C)CCCCCC1.FC(F)(F)S(=O)(=O)[N-]S(=O)(=O)C(F)(F)F","-","-","AUTO_421","-","A138128","-","-","-","252.2","K","-","-","-","-","-20.8","Celsius","-","-","-","-","","-",""
"C[N+]1(CC=C)CCOCC1.FC(F)(F)S(=O)(=O)[N-]S(=O)(=O)C(F)(F)F","-","-","AUTO_424","-","A138128","-","-","-","317.2","K","-","-","-","-","44.2","Celsius","-","-","-","-","","-",""
"CC[N+]1(CC=C)CCOCC1.FC(F)(F)S(=O)(=O)[N-]S(=O)(=O)C(F)(F)F","-","-","AUTO_425","-","A138128","-","-","-","315.2","K","-","-","-","-","42.2","Celsius","-","-","-","-","","-",""
"CN(C)C(N(C)C)=[N+](C)C.FC(F)(F)S(=O)(=O)[N-]S(=O)(=O)C(F)(F)F","-","-","AUTO_426","-","A138128","-","-","-","360.1","K","-","-","-","-","87.1","Celsius","-","-","-","-","","-",""
"CCN(C)C(N(C)C)=[N+](C)C.FC(F)(F)S(=O)(=O)[N-]S(=O)(=O)C(F)(F)F","-","-","AUTO_427","-","A138128","-","-","-","291.4","K","-","-","-","-","18.4","Celsius","-","-","-","-","","-",""
"CCN(CC)C(N(C)C)=[N+](C)C.FC(F)(F)S(=O)(=O)[N-]S(=O)(=O)C(F)(F)F","-","-","AUTO_428","-","A138128","-","-","-","283.1","K","-","-","-","-","10.1","Celsius","-","-","-","-","","-",""
"CCCN(C)C(N(C)C)=[N+](C)C.FC(F)(F)S(=O)(=O)[N-]S(=O)(=O)C(F)(F)F","-","-","AUTO_429","-","A138128","-","-","-","273.6","K","-","-","-","-","0.6","Celsius","-","-","-","-","","-",""
"CCCN(CC)C(N(C)C)=[N+](C)C.FC(F)(F)S(=O)(=O)[N-]S(=O)(=O)C(F)(F)F","-","-","AUTO_430","-","A138128","-","-","-","271.6","K","-","-","-","-","-1.4","Celsius","-","-","-","-","","-",""
"CCCN(CCC)C(N(C)C)=[N+](C)C.FC(F)(F)S(=O)(=O)[N-]S(=O)(=O)C(F)(F)F","-","-","AUTO_431","-","A138128","-","-","-","286.1","K","-","-","-","-","13.1","Celsius","-","-","-","-","","-",""
"CCOCCN(C)C(N(C)CCOC)=[N+](C)C.FC(F)(F)S(=O)(=O)[N-]S(=O)(=O)C(F)(F)F","-","-","AUTO_432","-","A138128","-","-","-","281.6","K","-","-","-","-","8.6","Celsius","-","-","-","-","","-",""
"CC[N+](C)=C1N(C)CCN1C.FC(F)(F)S(=O)(=O)[N-]S(=O)(=O)C(F)(F)F","-","-","AUTO_433","-","A138128","-","-","-","263.9","K","-","-","-","-","-9.1","Celsius","-","-","-","-","","-",""
"CC[N+](CC)=C1N(C)CCN1C.FC(F)(F)S(=O)(=O)[N-]S(=O)(=O)C(F)(F)F","-","-","AUTO_434","-","A138128","-","-","-","297.1","K","-","-","-","-","24.1","Celsius","-","-","-","-","","-",""
"CCCC[P+](C)(CCCC)CCCC.FC(F)(F)S(=O)(=O)[N-]S(=O)(=O)C(F)(F)F","-","-","AUTO_437","-","A138128","-","-","-","289.6","K","-","-","-","-","16.6","Celsius","-","-","-","-","","-",""
"CCCC[P+](CCCC)(CCCC)CC=C.FC(F)(F)S(=O)(=O)[N-]S(=O)(=O)C(F)(F)F","-","-","AUTO_438","-","A138128","-","-","-","302.1","K","-","-","-","-","29.1","Celsius","-","-","-","-","","-",""
"CC[P+](CC)(CC)CCCC=C.FC(F)(F)S(=O)(=O)[N-]S(=O)(=O)C(F)(F)F","-","-","AUTO_439","-","A138128","-","-","-","285.2","K","-","-","-","-","12.2","Celsius","-","-","-","-","","-",""
"CCCCCCCC[P+](CCCCCCCC)(CCCCCCCC)CCCCCCCC.FC(F)(F)S(=O)(=O)[N-]S(=O)(=O)C(F)(F)F","-","-","AUTO_443","-","A138128","-","-","-","284.3","K","-","-","-","-","11.3","Celsius","-","-","-","-","","-",""
"CCCCCCCCCCCC[P+](CCCC)(CCCC)CCCC.FC(F)(F)S(=O)(=O)[N-]S(=O)(=O)C(F)(F)F","-","-","AUTO_444","-","A138128","-","-","-","286.6","K","-","-","-","-","13.6","Celsius","-","-","-","-","","-",""
"CCCC[P+]1(C)CCCCC1.FC(F)(F)S(=O)(=O)[N-]S(=O)(=O)C(F)(F)F","-","-","AUTO_448","-","A138128","-","-","-","279.2","K","-","-","-","-","6.2","Celsius","-","-","-","-","","-",""
"CCCC[P+]1(C)CCCC1.FC(F)(F)S(=O)(=O)[N-]S(=O)(=O)C(F)(F)F","-","-","AUTO_449","-","A138128","-","-","-","288.2","K","-","-","-","-","15.2","Celsius","-","-","-","-","","-",""
"CC[S+](C)C.FC(F)(F)S(=O)(=O)[N-]S(=O)(=O)C(F)(F)F","-","-","AUTO_451","-","A138128","-","-","-","292.3","K","-","-","-","-","19.3","Celsius","-","-","-","-","","-",""
"CCCC[S+](C)C.FC(F)(F)S(=O)(=O)[N-]S(=O)(=O)C(F)(F)F","-","-","AUTO_455","-","A138128","-","-","-","269.6","K","-","-","-","-","-3.4","Celsius","-","-","-","-","","-",""
"CCCC[S+](CC)CC.FC(F)(F)S(=O)(=O)[N-]S(=O)(=O)C(F)(F)F","-","-","AUTO_456","-","A138128","-","-","-","244.3","K","-","-","-","-","-28.7","Celsius","-","-","-","-","","-",""
"CCCCCC[S+](C)C.FC(F)(F)S(=O)(=O)[N-]S(=O)(=O)C(F)(F)F","-","-","AUTO_457","-","A138128","-","-","-","316.7","K","-","-","-","-","43.7","Celsius","-","-","-","-","","-",""
"C[S+]1CCCC1.FC(F)(F)S(=O)(=O)[N-]S(=O)(=O)C(F)(F)F","-","-","AUTO_458","-","A138128","-","-","-","371.2","K","-","-","-","-","98.2","Celsius","-","-","-","-","","-",""
"CC[S+]1CCCC1.FC(F)(F)S(=O)(=O)[N-]S(=O)(=O)C(F)(F)F","-","-","AUTO_459","-","A138128","-","-","-","342.2","K","-","-","-","-","69.2","Celsius","-","-","-","-","","-",""
"CCC[S+]1CCCC1.FC(F)(F)S(=O)(=O)[N-]S(=O)(=O)C(F)(F)F","-","-","AUTO_460","-","A138128","-","-","-","299.2","K","-","-","-","-","26.2","Celsius","-","-","-","-","","-",""
"CCC[S+]1CCCCC1.FC(F)(F)S(=O)(=O)[N-]S(=O)(=O)C(F)(F)F","-","-","AUTO_461","-","A138128","-","-","-","303.2","K","-","-","-","-","30.2","Celsius","-","-","-","-","","-",""
"CCN(C)C1=C(N(C)C)[C+]1N(C)C.FC(F)(F)S(=O)(=O)[N-]S(=O)(=O)C(F)(F)F","-","-","AUTO_463","-","A138128","-","-","-","336.2","K","-","-","-","-","63.2","Celsius","-","-","-","-","","-",""
"CCN(C)C1=C(N(C)CC)[C+]1N(C)CC.FC(F)(F)S(=O)(=O)[N-]S(=O)(=O)C(F)(F)F","-","-","AUTO_464","-","A138128","-","-","-","280.2","K","-","-","-","-","7.2","Celsius","-","-","-","-","","-",""
"CCN(CC)C1=C(N(C)C)[C+]1N(C)C.FC(F)(F)S(=O)(=O)[N-]S(=O)(=O)C(F)(F)F","-","-","AUTO_465","-","A138128","-","-","-","317.2","K","-","-","-","-","44.2","Celsius","-","-","-","-","","-",""
"CCN(CC)C1=C(N(CC)CC)[C+]1N(C)C.FC(F)(F)S(=O)(=O)[N-]S(=O)(=O)C(F)(F)F","-","-","AUTO_466","-","A138128","-","-","-","290.2","K","-","-","-","-","17.2","Celsius","-","-","-","-","","-",""
"CCN(CC)C1=C(N(CC)CC)[C+]1N(CC)CC.FC(F)(F)S(=O)(=O)[N-]S(=O)(=O)C(F)(F)F","-","-","AUTO_467","-","A138128","-","-","-","291.2","K","-","-","-","-","18.2","Celsius","-","-","-","-","","-",""
"CCCN(C)C1=C(N(C)C)[C+]1N(C)C.FC(F)(F)S(=O)(=O)[N-]S(=O)(=O)C(F)(F)F","-","-","AUTO_468","-","A138128","-","-","-","293.2","K","-","-","-","-","20.2","Celsius","-","-","-","-","","-",""
"CCCN(CCC)C1=C(N(C)C)[C+]1N(C)C.FC(F)(F)S(=O)(=O)[N-]S(=O)(=O)C(F)(F)F","-","-","AUTO_469","-","A138128","-","-","-","325.2","K","-","-","-","-","52.2","Celsius","-","-","-","-","","-",""
"CCCN(CCC)C1=C(N(CCC)CCC)[C+]1N(CCC)CCC.FC(F)(F)S(=O)(=O)[N-]S(=O)(=O)C(F)(F)F","-","-","AUTO_470","-","A138128","-","-","-","307.2","K","-","-","-","-","34.2","Celsius","-","-","-","-","","-",""
"CCCCN(C)C1=C(N(C)C)[C+]1N(C)C.FC(F)(F)S(=O)(=O)[N-]S(=O)(=O)C(F)(F)F","-","-","AUTO_471","-","A138128","-","-","-","279.2","K","-","-","-","-","6.2","Celsius","-","-","-","-","","-",""
"CCCCN(CCCC)C1=C(N(CC)CC)[C+]1N(CC)CC.FC(F)(F)S(=O)(=O)[N-]S(=O)(=O)C(F)(F)F","-","-","AUTO_472","-","A138128","-","-","-","269.2","K","-","-","-","-","-3.8","Celsius","-","-","-","-","","-",""
"CCCCN(CCCC)C1=C(N(CCCC)CCCC)[C+]1N(CCCC)CCCC.FC(F)(F)S(=O)(=O)[N-]S(=O)(=O)C(F)(F)F","-","-","AUTO_473","-","A138128","-","-","-","280.2","K","-","-","-","-","7.2","Celsius","-","-","-","-","","-",""
"CCCCCN(CCCCC)C1=C(N(CCCCC)CCCCC)[C+]1N(CCCCC)CCCCC.FC(F)(F)S(=O)(=O)[N-]S(=O)(=O)C(F)(F)F","-","-","AUTO_474","-","A138128","-","-","-","277.2","K","-","-","-","-","4.2","Celsius","-","-","-","-","","-",""
"CCCCCCN(C)C1=C(N(C)C)[C+]1N(C)C.FC(F)(F)S(=O)(=O)[N-]S(=O)(=O)C(F)(F)F","-","-","AUTO_475","-","A138128","-","-","-","259.2","K","-","-","-","-","-13.8","Celsius","-","-","-","-","","-",""
"CCCCCCN(CCCCCC)C1=C(N(C)C)[C+]1N(C)C.FC(F)(F)S(=O)(=O)[N-]S(=O)(=O)C(F)(F)F","-","-","AUTO_476","-","A138128","-","-","-","294.2","K","-","-","-","-","21.2","Celsius","-","-","-","-","","-",""
"CCCCCCN(CCCCCC)C1=C(N(CCCCCC)CCCCCC)[C+]1N(CCCCCC)CCCCCC.FC(F)(F)S(=O)(=O)[N-]S(=O)(=O)C(F)(F)F","-","-","AUTO_477","-","A138128","-","-","-","276.2","K","-","-","-","-","3.2","Celsius","-","-","-","-","","-",""
"CCCCCCCCCCN(CCCCCCCCCC)C1=C(N(CCCCCCCCCC)CCCCCCCCCC)[C+]1N(CCCCCCCCCC)CCCCCCCCCC.FC(F)(F)S(=O)(=O)[N-]S(=O)(=O)C(F)(F)F","-","-","AUTO_478","-","A138128","-","-","-","281.2","K","-","-","-","-","8.2","Celsius","-","-","-","-","","-",""
"CN1C=C[N+](C)=C1.FC(F)(F)C(F)(F)S(=O)(=O)[N-]S(=O)(=O)C(F)(F)C(F)(F)F","-","-","AUTO_480","-","A138128","-","-","-","288.2","K","-","-","-","-","15.2","Celsius","-","-","-","-","","-",""
"CCCCN1C=C[N+](C)=C1.FC(F)(F)C(F)(F)S(=O)(=O)[N-]S(=O)(=O)C(F)(F)C(F)(F)F","-","-","AUTO_482","-","A138128","-","-","-","280.2","K","-","-","-","-","7.2","Celsius","-","-","-","-","","-",""