"SMILES","CASRN","EXTERNALID","N","NAME","ARTICLEID","PUBMEDID","PAGE","TABLE","Melting Point","UNIT {Melting Point}","Decomposition","UNIT {Decomposition}","Glass-transition temperature (Tg)","UNIT {Glass-transition temperature (Tg)}","Melting Point {measured, converted}","UNIT {Melting Point}","Decomposition {measured, converted}","UNIT {Decomposition}","Glass-transition temperature (Tg) {measured, converted}","UNIT {Glass-transition temperature (Tg)}","weight loss","UNIT {weight loss}","Solvent"
"[Br-].FC1=C(F)C(F)=C(C[N+]2=CC=CC=C2)C(F)=C1F","-","-","AUTO_14490","-","A135195","-","-","-","162.0 - 163.0","Celsius","-","-","-","-","162.5","Celsius","-","-","-","-","","-",""
"[Cl-].C[N+](C)(C)CCl","-","-","AUTO_14598","-","A135195","-","-","-","165.0 - 166.0","Celsius","-","-","-","-","165.5","Celsius","-","-","-","-","","-",""
"[Br-].OC(=O)CC[N+]1=CN(CC2=CC(C#N)=C(C=C2N(=O)=O)C#N)C3=CC=CC=C13","-","-","AUTO_14626","-","A135195","-","-","-","165.0 - 170.0","Celsius","-","-","-","-","167.5","Celsius","-","-","-","-","","-",""
"[I-].CC[P+](C1=CC=CC=C1)(C2=CC=CC=C2)C3=CC=CC=C3","-","-","AUTO_14760","-","A135195","-","-","-","169.0 - 170.0","Celsius","-","-","-","-","169.5","Celsius","-","-","-","-","","-",""
"F[P-](F)(F)(F)(F)F.COC1=C(O)C=CC(C=NCCN2C=C[N+](C)=C2)=C1","-","-","AUTO_15169","-","A135195","-","-","-","178.0 - 180.0","Celsius","-","-","-","-","179.0","Celsius","-","-","-","-","","-",""
"[Br-].CCCCCCCCCCCCCCCC[N+](C)(C)CC","-","-","AUTO_15179","-","A135195","-","-","-","178.0 - 186.0","Celsius","-","-","-","-","182.0","Celsius","-","-","-","-","","-",""
"CCCC[N+]1=C(C)N(C)C=C1.CCCCCCCC/C=C\CCCCCCCCOCCOCCOS([O-])(=O)=O","-","-","AUTO_15219","-","A135195","-","-","-","-18.0 - -15.0","Celsius","-","-","-","-","-16.5","Celsius","-","-","-","-","","-",""
"F[B-](F)(F)F.CCCC[N+](C)(C)C","-","-","AUTO_15668","-","A135195","-","-","","191.0","Celsius","-","-","-","-","191.0","Celsius","-","-","-","-","","-",""
"[Br-].C[N+]1(C)CCC(C1)OC(=O)C(O)(C2CCCC2)C3=CC=CC=C3","-","-","AUTO_15675","-","A135195","-","-","-","191.0 - 194.0","Celsius","-","-","-","-","192.5","Celsius","-","-","-","-","","-",""
"[I-].C=CCSC1=C(N=C(O1)C2=CC=CC=C2)[P+](C3=CC=CC=C3)(C4=CC=CC=C4)C5=CC=CC=C5","-","-","AUTO_15964","-","A135195","-","-","-","198.0 - 200.0","Celsius","-","-","-","-","199.0","Celsius","-","-","-","-","","-",""
"[Cl-].COC[P+](C1=CC=CC=C1)(C2=CC=CC=C2)C3=CC=CC=C3","-","-","AUTO_15993","-","A135195","-","-","-","199.0 - 202.0","Celsius","-","-","-","-","200.5","Celsius","-","-","-","-","","-",""
"[Cl-].CC1=CC(C)=C(CN2C=C[N+]3=C2C(C4=CC=CC=C4)=C(C5=CC=CC=C5)C6=C3C=CC(Cl)=C6)C(C)=C1","-","-","AUTO_16453","-","A135195","-","-","-","209.0 - 210.0","Celsius","-","-","-","-","209.5","Celsius","-","-","-","-","","-",""
"[I-].CCSC1=C(N=C(O1)C2=CC=C(Cl)C=C2)[P+](C3=CC=CC=C3)(C4=CC=CC=C4)C5=CC=CC=C5","-","-","AUTO_16466","-","A135195","-","-","-","209.0 - 211.0","Celsius","-","-","-","-","210.0","Celsius","-","-","-","-","","-",""
"[Br-].CCCCCCCCCCCCCCCCCC[N+](C)(C)C","-","-","AUTO_16849","-","A135195","-","-","-","218.0 - 220.0","Celsius","-","-","-","-","219.0","Celsius","-","-","-","-","","-",""
"[I-].CCCCN1C=[N+](CC2=CC(=O)C=C(O2)C3=CC=CC=C3)C4=CC=CC=C14","-","-","AUTO_16863","-","A135195","-","-","-","218.0 - 220.0","Celsius","-","-","-","-","219.0","Celsius","-","-","-","-","","-",""
"[Cl-].CC[P+](C1=CC=CC=C1)(C2=CC=CC=C2)C3=CC=CC=C3","-","-","AUTO_17100","-","A135195","-","-","-","225.0 - 230.0","Celsius","-","-","-","-","227.5","Celsius","-","-","-","-","","-",""
"[Br-].CCCCCCCCCCCCCC[N+](C)(C)C","-","-","AUTO_17146","-","A135195","-","-","-","227.0 - 229.0","Celsius","-","-","-","-","228.0","Celsius","-","-","-","-","","-",""
"[O-]S([O-])(=O)=O.CCCCCCCCCCCCCC[P+](CCCCCC)(CCCCCC)CCCCCC","-","-","AUTO_18228","-","A135195","-","-","-","28.0 - 34.0","Celsius","-","-","-","-","31.0","Celsius","-","-","-","-","","-",""
"CC[N+]1=CC=CC(=C1)C(F)(F)F.FC(F)(F)S(=O)(=O)[N-]S(=O)(=O)C(F)(F)F","-","-","AUTO_18324","-","A135195","-","-","-","29.0 - 30.0","Celsius","-","-","-","-","29.5","Celsius","-","-","-","-","","-",""
"CCCC[N+]1=C(C)N(C)C(C)=C1C.FC(F)(F)S(=O)(=O)[N-]S(=O)(=O)C(F)(F)F","-","-","AUTO_18326","-","A135195","-","-","-","29.0 - 32.0","Celsius","-","-","-","-","30.5","Celsius","-","-","-","-","","-",""
"COP([O-])(=O)SC.CCC[N+]1(C)CCCC1","-","-","AUTO_18417","-","A135195","-","-","-","30.0 - 36.0","Celsius","-","-","-","-","33.0","Celsius","-","-","-","-","","-",""
"CC1=CC(=O)[N-]S(=O)(=O)O1.CCCCCCCCCCCCCCOC[N+](C)(C)CCO","-","-","AUTO_18467","-","A135195","-","-","-","31.0 - 31.5","Celsius","-","-","-","-","31.25","Celsius","-","-","-","-","","-",""
"FC(F)(F)S(=O)(=O)[N-]S(=O)(=O)C(F)(F)F.FC(F)(F)C(F)(F)C(F)(F)C(F)(F)CC[N+]1=CC=CC=C1","-","-","AUTO_18577","-","A135195","-","-","-","34.0 - 36.0","Celsius","-","-","-","-","35.0","Celsius","-","-","-","-","","-",""
"FP(F)(F)(F)(F)F.CCCCOCN1C=C[N+](COCCC)=C1CC","-","-","AUTO_18641","-","A135195","-","-","-","37.0 - 39.0","Celsius","-","-","-","-","38.0","Celsius","-","-","-","-","","-",""
"F[B-](F)(F)F.CCCCCCCOCN1C=C[N+](COCCCCCCC)=C1","-","-","AUTO_18675","-","A135195","-","-","","39.0","Celsius","-","-","-","-","39.0","Celsius","-","-","-","-","","-",""
"CCC[N+]1(C)CCCCC1.CC1=CC(Cl)=CC=C1OCC([O-])=O","-","-","AUTO_18679","-","A134898","-","-","","39.0","Celsius","-","-","-","-","39.0","Celsius","-","-","-","-","","-",""
"COP([O-])(=O)[Se]C.CCC[N+]1(C)CCCC1","-","-","AUTO_18708","-","A135085","-","-","","40.0","Celsius","-","-","-","-","40.0","Celsius","-","-","-","-","","-",""
"[O-]Cl(=O)(=O)=O.CCCCCCCCCC[P+](C)(CCCCCCCCCC)CCCCCCCCCC","-","-","AUTO_18715","-","A135084","-","-","","40.3","Celsius","-","-","-","-","40.3","Celsius","-","-","-","-","","-",""
"CC[NH+](CC)CC.FC(F)(F)C(F)(F)C(F)(F)C(F)(F)S(=O)(=O)[N-]S(=O)(=O)C(F)(F)C(F)(F)C(F)(F)C(F)(F)F","-","-","AUTO_18735","-","A135083","-","-","","42.0","Celsius","-","-","-","-","42.0","Celsius","-","-","-","-","","-",""
"[O-]S(=O)(=O)C(F)(F)F.COC(=O)CCSC(SC)=[N+]1CCCCC1","-","-","AUTO_18746","-","A135082","-","-","","42.0","Celsius","-","-","-","-","42.0","Celsius","-","-","-","-","","-",""
"OS([O-])(=O)=O.CCCCCC[N+]1=CC(=CC=C1)C(O)=O","-","-","AUTO_18776","-","A135081","-","-","","44.0","Celsius","-","-","-","-","44.0","Celsius","-","-","-","-","","-",""
"F[B-](F)(F)F.CCCCCCCCCCCCSC[N+]1=CN(C)C=C1","-","-","AUTO_18777","-","A135195","-","-","","44.0","Celsius","-","-","-","-","44.0","Celsius","-","-","-","-","","-",""
"FC(F)(F)S(=O)(=O)[N-]S(=O)(=O)C(F)(F)F.CCOC(=O)[C@@H](OC(=O)C[N+]1=CN(C)C=C1)C2=CC=CC=C2","-","-","AUTO_18779","-","A135195","-","-","-","44.0 - 46.0","Celsius","-","-","-","-","45.0","Celsius","-","-","-","-","","-",""
"[Br-].OCC[N+]1=CN(C=C)C=C1","-","-","AUTO_18824","-","A135080","-","-","","46.0","Celsius","-","-","-","-","46.0","Celsius","-","-","-","-","","-",""
"CS([O-])(=O)=O.CCCC[NH+]1C[Si](C)(C)O[Si](C)(C)C1","-","-","AUTO_18869","-","A135078","-","-","","48.0","Celsius","-","-","-","-","48.0","Celsius","-","-","-","-","","-",""
"FC(F)(F)S(=O)(=O)[N-]S(=O)(=O)C(F)(F)F.C(ON1C=C[N+](OCC2=CC=CC=C2)=C1)C3=CC=CC=C3","-","-","AUTO_18910","-","A135077","-","-","","50.0","Celsius","-","-","-","-","50.0","Celsius","-","-","-","-","","-",""
"C[NH+](C)CC1=CC=CC=C1.FC(F)(F)S(=O)(=O)[N-]S(=O)(=O)C(F)(F)F","-","-","AUTO_18941","-","A135076","-","-","","51.0","Celsius","-","-","-","-","51.0","Celsius","-","-","-","-","","-",""
"[Cl-].C[N+](C)(N)CC=C","-","-","AUTO_18964","-","A135075","-","-","","52.0","Celsius","-","-","-","-","52.0","Celsius","-","-","-","-","","-",""
"FC(F)(F)S(=O)(=O)[N-]S(=O)(=O)C(F)(F)F.CCCCCCCCCCCC[N+]12CCN(CC1)CC2","-","-","AUTO_19003","-","A135070","-","-","","53.8","Celsius","-","-","-","-","53.8","Celsius","-","-","-","-","","-",""
"F[B-](F)(F)F.CCCCCCCCCOCN1C=C[N+](COCCCCCCCCC)=C1","-","-","AUTO_19053","-","A135195","-","-","","55.0","Celsius","-","-","-","-","55.0","Celsius","-","-","-","-","","-",""
"[Cl-].CCCCCCCCCCCCCCCC[N+](C)(C)CC1=CC=CC=C1","-","-","AUTO_19059","-","A135074","-","-","","55.0","Celsius","-","-","-","-","55.0","Celsius","-","-","-","-","","-",""
"[Br-].CN1C=C[N+](CCCO)=C1C","-","-","AUTO_19132","-","A135073","-","-","","58.0","Celsius","-","-","-","-","58.0","Celsius","-","-","-","-","","-",""
"FP(F)(F)(F)(F)F.CCN1C=C[N+](CC)=C1","-","-","AUTO_19143","-","A135195","-","-","-","58.0 - 61.0","Celsius","-","-","-","-","59.5","Celsius","-","-","-","-","","-",""
"O=N(=O)C1=C[N-]N=N1.CCCC[N+](CCCC)(CCCC)CCCC","-","-","AUTO_19182","-","A135072","-","-","","60.0","Celsius","-","-","-","-","60.0","Celsius","-","-","-","-","","-",""
"CC1=CC=[N+](CC(F)(F)F)C=C1.FC(F)(F)S(=O)(=O)[N-]S(=O)(=O)C(F)(F)F","-","-","AUTO_19206","-","A135195","-","-","-","60.3 - 61.1","Celsius","-","-","-","-","60.7","Celsius","-","-","-","-","","-",""
"F[B-](F)(F)F.CN(C)C1=CC=[N+](CCO)C=C1","-","-","AUTO_19236","-","A135071","-","-","","62.0","Celsius","-","-","-","-","62.0","Celsius","-","-","-","-","","-",""
"FC(F)(F)S(=O)(=O)[N-]S(=O)(=O)C(F)(F)F.CCCCCCCCCCCCCC[N+]12CCN(CC1)CC2","-","-","AUTO_19368","-","A135070","-","-","","66.0","Celsius","-","-","-","-","66.0","Celsius","-","-","-","-","","-",""
"[Br-].CCCCCCCCCCCCCCCC[N+]1=CN(CCCNC(=O)CP(=O)(C2=CC=CC=C2)C3=CC=CC=C3)C=C1","-","-","AUTO_19409","-","A135069","-","-","","67.0","Celsius","-","-","-","-","67.0","Celsius","-","-","-","-","","-",""
"CC1=CC=C(C=C1)S([O-])(=O)=O.CCCCCCCC[P+](C1=CC=CC=C1)(C2=CC=CC=C2)C3=CC=CC=C3","-","-","AUTO_19506","-","A135068","-","-","","70.0","Celsius","-","-","-","-","70.0","Celsius","-","-","-","-","","-",""
"O=C1O[B-]2(OC1=O)OC(=O)C(=O)O2.CCCC[N+](CCCC)(CCCC)CCCC","-","-","AUTO_19608","-","A135195","-","-","","73.0","Celsius","-","-","-","-","73.0","Celsius","-","-","-","-","","-",""
"FC(F)(F)S(=O)(=O)[N-]S(=O)(=O)C(F)(F)F.COC(=O)C(OC(=O)C[N+]1=CN(C)C=C1)C2=CC=CC=C2","-","-","AUTO_19610","-","A135195","-","-","-","73.0 - 75.0","Celsius","-","-","-","-","74.0","Celsius","-","-","-","-","","-",""
"[O-]C(=O)C(F)(F)F.CN1C=CC(=[N+]1C)C(F)(F)F","-","-","AUTO_19617","-","A135195","-","-","-","73.0 - 81.0","Celsius","-","-","-","-","77.0","Celsius","-","-","-","-","","-",""
"[Br-].COCCCNC(=O)C[N+]1=CN(C)C=C1","-","-","AUTO_19687","-","A135067","-","-","","75.0","Celsius","-","-","-","-","75.0","Celsius","-","-","-","-","","-",""
"[O-]S(=O)(=O)C1=CC=CC=C1.CCCC[N+](CCCC)(CCCC)CCCC","-","-","AUTO_19694","-","A135066","-","-","","75.0","Celsius","-","-","-","-","75.0","Celsius","-","-","-","-","","-",""
"F[B-](F)(F)F.CC(C1=CC=CC=C1)[N+]2=CC=CC=C2","-","-","AUTO_19695","-","A135195","-","-","","75.0","Celsius","-","-","-","-","75.0","Celsius","-","-","-","-","","-",""
"FP(F)(F)(F)(F)F.CN1C=C[N+](CCCCCCCCCCC(O)=O)=C1","-","-","AUTO_19745","-","A135195","-","-","-","77.0 - 79.0","Celsius","-","-","-","-","78.0","Celsius","-","-","-","-","","-",""
"CCCC[N+]1(C)CCOCC1.CC1=CC(Cl)=CC=C1OCC([O-])=O","-","-","AUTO_19752","-","A134898","-","-","","77.0","Celsius","-","-","-","-","77.0","Celsius","-","-","-","-","","-",""
"[I-].CC[N+]1=C(C)N(OCC=C)C=C1","-","-","AUTO_19764","-","A135059","-","-","","78.0","Celsius","-","-","-","-","78.0","Celsius","-","-","-","-","","-",""
"C1=C[NH+]=CC=N1.[O-]S(=O)(=O)C(F)(F)F","-","-","AUTO_19792","-","A135065","-","-","","78.0","Celsius","-","-","-","-","78.0","Celsius","-","-","-","-","","-",""
"CCCCN1C=C[NH+]=C1.[O-]C1=C(C=C(C=C1N(=O)=O)N(=O)=O)N(=O)=O","-","-","AUTO_19856","-","A135064","-","-","","80.0","Celsius","-","-","-","-","80.0","Celsius","-","-","-","-","","-",""
"[Br-].CCCCCCCCCCCCCCCC[N+](C)(C)CCN(C)C","-","-","AUTO_19920","-","A135195","-","-","-","81.0 - 88.5","Celsius","-","-","-","-","84.75","Celsius","-","-","-","-","","-",""
"[Cl-].[NH3+]CCO","-","-","AUTO_19927","-","A135195","-","-","","82.0","Celsius","-","-","-","-","82.0","Celsius","-","-","-","-","","-",""
"C1=CC=[NH+]C=C1.[O-]C(=O)C(F)(F)F","-","-","AUTO_19930","-","A135195","-","-","","82.0","Celsius","-","-","-","-","82.0","Celsius","-","-","-","-","","-",""
"[I-].CCCCCCCCCCCCCCCC[N+]1=CC=C(C)C=C1","-","-","AUTO_19944","-","A135063","-","-","","82.0","Celsius","-","-","-","-","82.0","Celsius","-","-","-","-","","-",""
"F[P-](F)(F)(F)(F)F.C[N+]1=CN(OCC2=CC=CC=C2)C=C1","-","-","AUTO_19972","-","A135059","-","-","","83.0","Celsius","-","-","-","-","83.0","Celsius","-","-","-","-","","-",""
"FP(F)(F)(F)(F)F.CN1C=C[N+](CCOC(=O)C2=CC=C(C=C2)C(N)=NOC(=O)C3=CC=CO3)=C1","-","-","AUTO_19988","-","A135195","-","-","-","83.0 - 85.0","Celsius","-","-","-","-","84.0","Celsius","-","-","-","-","","-",""
"[Br-].CCC[N+]1=C2CCCN2C=C1","-","-","AUTO_19996","-","A135062","-","-","","83.0","Celsius","-","-","-","-","83.0","Celsius","-","-","-","-","","-",""
"[Br-].CCCCCCCC[N+]12CCN(CC1)CC2","-","-","AUTO_20016","-","A135061","-","-","","84.0","Celsius","-","-","-","-","84.0","Celsius","-","-","-","-","","-",""
"F[P-](F)(F)(F)(F)F.CCON1C=C[N+](OCC)=C1Br","-","-","AUTO_20021","-","A135060","-","-","","84.0","Celsius","-","-","-","-","84.0","Celsius","-","-","-","-","","-",""
"FP(F)(F)(F)(F)F.CN1C=C[N+](CC(=O)N2[C@@H](CC3=CC=CC=C3)COC2=O)=C1","-","-","AUTO_20024","-","A135195","-","-","-","84.0 - 86.0","Celsius","-","-","-","-","85.0","Celsius","-","-","-","-","","-",""
"[Br-].CON1C=C[N+](CC#C)=C1","-","-","AUTO_20043","-","A135059","-","-","","85.0","Celsius","-","-","-","-","85.0","Celsius","-","-","-","-","","-",""
"FP(F)(F)(F)(F)F.CCCCN1C=[N+](CCCC)C2=CC(C)=C(C)C=C12","-","-","AUTO_20044","-","A135195","-","-","-","85.0 - 86.0","Celsius","-","-","-","-","85.5","Celsius","-","-","-","-","","-",""
"[Br-].CCCCCCCCCCCCCCCC[N+](CCC)(CCC)CCC","-","-","AUTO_20051","-","A135058","-","-","","85.0","Celsius","-","-","-","-","85.0","Celsius","-","-","-","-","","-",""
"[I-].CCCCCCCC[N+]1=C(C)N(C)C=C1","-","-","AUTO_20094","-","A135057","-","-","","86.0","Celsius","-","-","-","-","86.0","Celsius","-","-","-","-","","-",""
"FP(F)(F)(F)(F)F.CCCCCC1=C[N+](=NN1C)[C@@H]2CN[C@@H](C2)C(O)(C3=CC=CC=C3)C4=CC=CC=C4","-","-","AUTO_20119","-","A135195","-","-","-","86.0 - 88.0","Celsius","-","-","-","-","87.0","Celsius","-","-","-","-","","-",""
"FP(F)(F)(F)(F)F.CCCC[N+]1=CN(CC(OCC2=C(Cl)C=C(Cl)C=C2)C3=C(Cl)C=C(Cl)C=C3)C=C1","-","-","AUTO_20123","-","A135195","-","-","-","86.0 - 89.0","Celsius","-","-","-","-","87.5","Celsius","-","-","-","-","","-",""
"CCCC[N+]1(CCCC)CCCC1.CC1=CC(C)=C(C(C)=C1)S([O-])(=O)=O","-","-","AUTO_20152","-","A135056","-","-","","87.0","Celsius","-","-","-","-","87.0","Celsius","-","-","-","-","","-",""
"FP(F)(F)(F)(F)F.CCCCN1C=C[N+](CC2=CC=C(C=C)C=C2)=C1","-","-","AUTO_20153","-","A135195","-","-","-","87.0 - 88.5","Celsius","-","-","-","-","87.75","Celsius","-","-","-","-","","-",""
"FP(F)(F)(F)(F)F.O=C(C[N+]1=CC=CC=C1)N2[C@@H](CC3=CC=CC=C3)COC2=O","-","-","AUTO_20163","-","A135195","-","-","-","87.0 - 90.0","Celsius","-","-","-","-","88.5","Celsius","-","-","-","-","","-",""
"CCCN1C=C[N+](C)=C1.[O-]S(=O)(=O)C1=CC(=CC=C1)P(C2=CC=CC=C2)C3=CC=CC=C3","-","-","AUTO_20197","-","A135055","-","-","","88.0","Celsius","-","-","-","-","88.0","Celsius","-","-","-","-","","-",""
"F[B-](F)(F)F.C[N+]1(CC2=CC=CC=C2)CCOCC1","-","-","AUTO_20210","-","A135334","-","-","","88.0","Celsius","-","-","-","-","88.0","Celsius","-","-","-","-","","-",""
"[Br-].CCCC[N+]1=CN(C[C@@H](O)CC)N=C1","-","-","AUTO_20229","-","A135054","-","-","","89.0","Celsius","-","-","-","-","89.0","Celsius","-","-","-","-","","-",""
"CCCC[NH3+].[O-]C(=O)/C=C/C1=CC=CC=C1","-","-","AUTO_20247","-","A135053","-","-","","89.0","Celsius","-","-","-","-","89.0","Celsius","-","-","-","-","","-",""
"CC(=O)OCC[N+](C)(C)C.CC1=C(OCC([O-])=O)C=CC(Cl)=C1","-","-","AUTO_20265","-","A135052","-","-","","90.0","Celsius","-","-","-","-","90.0","Celsius","-","-","-","-","","-",""
"[O-]S(=O)(=O)C1=CC=C(C=C1)N(=O)=O.CCCC[N+](CCCC)(CCCC)CCCC","-","-","AUTO_20268","-","A135051","-","-","","90.0","Celsius","-","-","-","-","90.0","Celsius","-","-","-","-","","-",""
"[I-].CC[N+](C)(C)CCOC(=O)C(C)=C","-","-","AUTO_20299","-","A135195","-","-","-","91.0 - 91.5","Celsius","-","-","-","-","91.25","Celsius","-","-","-","-","","-",""
"[Cl-].CN1C=C[N+](CCC2=CC=CC=C2)=C1","-","-","AUTO_20301","-","A135050","-","-","","91.0","Celsius","-","-","-","-","91.0","Celsius","-","-","-","-","","-",""
"F[B-](F)(F)F.CN1C=C[N+](CC2=CC=C(C=C2)C3=CC(=O)C=C(C)O3)=C1","-","-","AUTO_20321","-","A135333","-","-","","91.0","Celsius","-","-","-","-","91.0","Celsius","-","-","-","-","","-",""
"CCOC(=O)C[N+](C)(C)C.COC(=O)C1=CC=C(I)C=C1S(=O)(=O)[N-]C(=O)NC2=NC(OC)=NC(C)=N2","-","-","AUTO_20323","-","A134894","-","-","","91.0","Celsius","-","-","-","-","91.0","Celsius","-","-","-","-","","-",""
"[Br-].CCCCCCCCCCCCCCCCCC[N+]1=CC=CC2=CC=CC=C12","-","-","AUTO_20351","-","A135049","-","-","","92.0","Celsius","-","-","-","-","92.0","Celsius","-","-","-","-","","-",""
"[Br-].CCCCCCCCCOC(=O)C[N+](C)(C)C","-","-","AUTO_20362","-","A134899","-","-","","92.0","Celsius","-","-","-","-","92.0","Celsius","-","-","-","-","","-",""
"F[B-](F)(F)F.CCC[N+]12CCN(CC1)CC2","-","-","AUTO_20394","-","A135331","-","-","","93.0","Celsius","-","-","-","-","93.0","Celsius","-","-","-","-","","-",""
"[I-].CC[N+]1=CN(C=C1)C(F)(F)C(F)Cl","-","-","AUTO_20422","-","A134899","-","-","","94.0","Celsius","-","-","-","-","94.0","Celsius","-","-","-","-","","-",""
"[Br-].CCCCCCCCCCCCOC(=O)[C@H](CC1=CC=CC=C1)NC(=O)C[N+]2=CN(C)C=C2","-","-","AUTO_20429","-","A134898","-","-","","94.0","Celsius","-","-","-","-","94.0","Celsius","-","-","-","-","","-",""
"C[N+](C)(C)CCCl.CC1=CC(Cl)=CC=C1OCC([O-])=O","-","-","AUTO_20461","-","A134898","-","-","","95.0","Celsius","-","-","-","-","95.0","Celsius","-","-","-","-","","-",""
"FP(F)(F)(F)(F)F.CN1C=C[N+](CC(=O)N2[C@H](COC2=O)C3=CC=CC=C3)=C1","-","-","AUTO_20466","-","A135331","-","-","","95.0","Celsius","-","-","-","-","95.0","Celsius","-","-","-","-","","-",""
"F[P-](F)(F)(F)(F)F.CCCC[N+](CCCC)(CCCC)CC1=CC(C=O)=C(O)C(Cl)=C1","-","-","AUTO_20481","-","A134897","-","-","","95.0","Celsius","-","-","-","-","95.0","Celsius","-","-","-","-","","-",""
"F[B-](F)(F)F.C[N+]1=CN(CCOC(=O)C2=C(O)C=CC=C2)C=C1","-","-","AUTO_20549","-","A135330","-","-","","97.0","Celsius","-","-","-","-","97.0","Celsius","-","-","-","-","","-",""
"[I-].CC[N+]1=CN(C=C1)C(C)=O","-","-","AUTO_20570","-","A134896","-","-","","97.0","Celsius","-","-","-","-","97.0","Celsius","-","-","-","-","","-",""
"[Br-].CCCCCCCCOC(=O)[C@H](CC1=CC=CC=C1)NC(=O)C[N+]2=CC=CC=C2","-","-","AUTO_20618","-","A134895","-","-","","98.0","Celsius","-","-","-","-","98.0","Celsius","-","-","-","-","","-",""
"[Br-].CCCCCCCCCCCCOC(=O)C[N+](C)(C)C","-","-","AUTO_20659","-","A134894","-","-","","99.0","Celsius","-","-","-","-","99.0","Celsius","-","-","-","-","","-",""
"CCCCCCCCCCCCCC[N+](C)(C)CC1=CC=CC=C1.COC1=CC(=CC=C1O)C([O-])=O","-","-","AUTO_1","-","A138128","-","-","-","320.5","K","-","-","-","-","47.5","Celsius","-","-","-","-","","-",""
"C[N+](C)(C)C.CC(C)[C@H](N)C([O-])=O","-","-","AUTO_2","-","A138128","-","-","-","313.2","K","-","-","-","-","40.2","Celsius","-","-","-","-","","-",""
"CCCC[N+](CCCC)(CCCC)CCCC.CC(C)[C@H](N)C([O-])=O","-","-","AUTO_3","-","A138128","-","-","-","298.2","K","-","-","-","-","25.2","Celsius","-","-","-","-","","-",""
"CCCC[N+](CCCC)(CCCC)CCCC.FC(F)(F)COS(=O)(=O)[N-]S(=O)(=O)OCC(F)(F)F","-","-","AUTO_18","-","A138128","-","-","-","317.2","K","-","-","-","-","44.2","Celsius","-","-","-","-","","-",""
"CCC[N+]1(C)CCCC1.FC(F)(F)COS(=O)(=O)[N-]S(=O)(=O)OCC(F)(F)F","-","-","AUTO_19","-","A138128","-","-","-","282.2","K","-","-","-","-","9.2","Celsius","-","-","-","-","","-",""
"CCC[N+]1(C)CCCCC1.FC(F)(F)COS(=O)(=O)[N-]S(=O)(=O)OCC(F)(F)F","-","-","AUTO_20","-","A138128","-","-","-","299.2","K","-","-","-","-","26.2","Celsius","-","-","-","-","","-",""
"CN1C=C[NH+]=C1.[O-]C(=O)C(F)(F)C(F)(F)C(F)(F)C(F)(F)C(F)(F)C(F)(F)C(F)(F)F","-","-","AUTO_21","-","A138128","-","-","-","359.2","K","-","-","-","-","86.2","Celsius","-","-","-","-","","-",""
"CC[NH3+].[O-]C(=O)C(F)(F)C(F)(F)C(F)(F)C(F)(F)C(F)(F)C(F)(F)C(F)(F)F","-","-","AUTO_22","-","A138128","-","-","-","331.2","K","-","-","-","-","58.2","Celsius","-","-","-","-","","-",""