"SMILES","CASRN","EXTERNALID","N","NAME","ARTICLEID","PUBMEDID","PAGE","TABLE","Melting Point","UNIT {Melting Point}","Decomposition","UNIT {Decomposition}","Glass-transition temperature (Tg)","UNIT {Glass-transition temperature (Tg)}","Melting Point {measured, converted}","UNIT {Melting Point}","Decomposition {measured, converted}","UNIT {Decomposition}","Glass-transition temperature (Tg) {measured, converted}","UNIT {Glass-transition temperature (Tg)}","weight loss","UNIT {weight loss}","Solvent"
"NCC([O-])=O.C[N+](C)(C)CCO","-","-","AUTO_465","-","A132545","-","-","-","-","-","175.0","Celsius","-","-","-","-","175.0","Celsius","-","-","","-",""
"CC[N+]1=CC=CC=C1.N#C[BH2-]N1C=NN=N1","-","-","AUTO_468","-","A132545","-","-","-","-","-","175.0","Celsius","-","-","-","-","175.0","Celsius","-","-","","-",""
"[I-].FC(F)(F)CC[N+]1=CC=CN=C1","-","-","AUTO_470","-","A132545","-","-","-","-","-","175.0","Celsius","-","-","-","-","175.0","Celsius","-","-","","-",""
"COCCOCCOCCOCC([O-])=O.CCCCCCCCCCCCCCCC[NH3+]","-","-","AUTO_472","-","A132545","-","-","","-","-","175.0","Celsius","-","-","-","-","175.0","Celsius","-","-","","-",""
"[N-]1C=CN=C1.CCCCCCCCCCCC[N+](C)(C)CC","-","-","AUTO_473","-","A132545","-","-","-","-","-","175.0","Celsius","-","-","-","-","175.0","Celsius","-","-","","-",""
"FC(F)(F)S(=O)(=O)[N-]S(=O)(=O)C(F)(F)F.[C@@H]12C[C@@H]([C@H](C)[C@H](C1)OC[N+]3=CC=CC=C3)C2(C)C","-","-","AUTO_474","-","A132545","-","-","-","-","-","175.0","Celsius","-","-","-","-","175.0","Celsius","-","-","","-",""
"[Cl-].C[C@H](NC(=O)[C@@H]1CCCN1C(=O)OC(C)(C)C)C(=O)NCC[N+]2=CN(C)C=C2","-","-","AUTO_475","-","A132545","-","-","-","-","-","175.0","Celsius","-","-","-","-","175.0","Celsius","-","-","","-",""
"F[P-](F)(F)(F)(F)F.CC(C)[C@H]1CC[C@H](C)C[C@@H]1OC[N+]2=CC=CC=C2","-","-","AUTO_476","-","A132545","-","-","","-","-","175.5","Celsius","-","-","-","-","175.5","Celsius","-","-","","-",""
"OCC[NH+](CCO)CCO.[O-]C(=O)CC(O)(CC(O)=O)C(O)=O","-","-","AUTO_477","-","A132545","-","-","","-","-","176.0","Celsius","-","-","-","-","176.0","Celsius","-","-","","-",""
"CC[N+]1=CN(C)C=C1.[H][P-](F)(F)(C(F)(F)C(F)(F)F)(C(F)(F)C(F)(F)F)C(F)(F)C(F)(F)F","-","-","AUTO_480","-","A132545","-","-","-","-","-","176.0","Celsius","-","-","-","-","176.0","Celsius","-","-","","-",""
"[O-]C(=O)C=C.OCC[NH+](CCO)CCO","-","-","AUTO_481","-","A132545","-","-","","-","-","176.0","Celsius","-","-","-","-","176.0","Celsius","-","-","","-",""
"CN1C=[N+](C)C(N=N#N)=N1.[O-]C1=C(C=C(C=C1N(=O)=O)N(=O)=O)N(=O)=O","-","-","AUTO_482","-","A132545","-","-","-","-","-","176.0","Celsius","-","-","-","-","176.0","Celsius","-","-","","-",""
"[C@@H](C)(N)C([O-])=O.CCCC[N+]1(C)CCCC1","-","-","AUTO_483","-","A139518","16718320","-","-","-","-","176.0","Celsius","-","-","-","-","176.0","Celsius","-","-","","-",""
"[O-]N(=O)=O.CN1C=[N+](CC#C)C=N1","-","-","AUTO_485","-","A132545","-","-","-","-","-","176.0","Celsius","-","-","-","-","176.0","Celsius","-","-","","-",""
"CCCC[N+](CCCC)(CCCC)CCCC.CCCC[B-](CCCC)(CCCC)C[Si](C)(C)C","-","-","AUTO_486","-","A132545","-","-","-","-","-","176.0","Celsius","-","-","-","-","176.0","Celsius","-","-","","-",""
"[O-]C(=O)C1=CC=CC=C1O.COC1=CC=CC(=C1)[C@]2(O)CCCC[C@H]2C[NH+](C)C","-","-","AUTO_487","-","A139544","20145871","-","","-","-","176.17","Celsius","-","-","-","-","176.17","Celsius","-","-","","-",""
"CCCC[N+]1=CN(C)C=C1.[H][P-](F)(F)(C(F)(F)C(F)(F)F)(C(F)(F)C(F)(F)F)C(F)(F)C(F)(F)F","-","-","AUTO_492","-","A132545","-","-","-","-","-","177.0","Celsius","-","-","-","-","177.0","Celsius","-","-","","-",""
"[O-]S(=O)(=O)C(F)(F)F.CC[N+]1=C(CCC1)OC","-","-","AUTO_493","-","A139562","24173956","-","-","-","-","177.0","Celsius","-","-","-","-","177.0","Celsius","-","-","","-",""
"[O-]S(=O)(=O)C(F)(F)F.CCOC(C)=[N+](CC)CC","-","-","AUTO_494","-","A132545","-","-","-","-","-","177.0","Celsius","-","-","-","-","177.0","Celsius","-","-","","-",""
"[N-]1C=CC=N1.CCCCCCCCCC[N+](C)(C)CC","-","-","AUTO_495","-","A132545","-","-","-","-","-","177.0","Celsius","-","-","-","-","177.0","Celsius","-","-","","-",""
"CC[B-](CC)(CC)C[Si](C)(C)C.CCCC[N+](CCCC)(CCCC)CCCC","-","-","AUTO_496","-","A139562","24173956","-","-","-","-","177.0","Celsius","-","-","-","-","177.0","Celsius","-","-","","-",""
"CC([O-])=O.C1CN=C2CCCCC[NH+]2C1","-","-","AUTO_499","-","A132545","-","-","","-","-","178.0","Celsius","-","-","-","-","178.0","Celsius","-","-","","-",""
"[O-]S(=O)(=O)C(F)(F)F.C1=CC=C(C=C1)[PH+](C2=CC=CC=C2)C3=CC=CC=C3","-","-","AUTO_500","-","A139546","20499940","-","","-","-","178.0","Celsius","-","-","-","-","178.0","Celsius","-","-","","-",""
"[I-].CN1C=C[N+](CC2=CC=CC=C2)=N1","-","-","AUTO_502","-","A132545","-","-","-","-","-","178.0","Celsius","-","-","-","-","178.0","Celsius","-","-","","-",""
"[I-].FC(F)(F)CC[N+]1=CC=NC=C1","-","-","AUTO_505","-","A132545","-","-","-","-","-","178.0","Celsius","-","-","-","-","178.0","Celsius","-","-","","-",""
"F[B-](F)(F)F.CC(C)[C@H]1CC[C@H](C)C[C@@H]1OC[N+]2=CC=CC=C2","-","-","AUTO_508","-","A132545","-","-","","-","-","178.0","Celsius","-","-","-","-","178.0","Celsius","-","-","","-",""
"CC1=CC=C[NH+]=C1.[O-]C(=O)C1=CC=CC=C1N=NC2=CC=C(O)C=C2","-","-","AUTO_509","-","A139592","32006830","-","","-","-","178.5","Celsius","-","-","-","-","178.5","Celsius","-","-","","-",""
"NCC([O-])=O.CCCC[N+](CCCC)(CCCC)CCCC","-","-","AUTO_510","-","A132545","-","-","-","-","-","179.0","Celsius","-","-","-","-","179.0","Celsius","-","-","","-",""
"[C-]#N.CCCC[N+](C)(CCCC)CCCC","-","-","AUTO_511","-","A132545","-","-","-","-","-","179.0","Celsius","-","-","-","-","179.0","Celsius","-","-","","-",""
"CN1C=[N+](CCN=N#N)C=N1.O=N(=O)C1=NC(=N[N-]1)N(=O)=O","-","-","AUTO_512","-","A139529","18188483","-","-","-","-","179.0","Celsius","-","-","-","-","179.0","Celsius","-","-","","-",""
"F[P-](F)(F)(F)(F)F.C[N+]1(CC2=CC=CC=C2N(=O)=O)CCCC1","-","-","AUTO_516","-","A132545","-","-","","-","-","290.0","Celsius","-","-","-","-","290.0","Celsius","-","-","","-",""
"[O-]S(=O)(=O)C(F)(F)F.CC[N+](CC)=C(C)OC","-","-","AUTO_518","-","A139562","24173956","-","-","-","-","179.0","Celsius","-","-","-","-","179.0","Celsius","-","-","","-",""
"C[C@H](O)C([O-])=O.CCCCCCCCCCCCOC(=O)C[N+](C)(C)C","-","-","AUTO_519","-","A139512","15998035","-","-","-","-","179.0","Celsius","-","-","-","-","179.0","Celsius","-","-","","-",""
"OCC[NH+](CCO)CCO.CCCCCCCCCC(CCCCCCC)C([O-])=O","-","-","AUTO_520","-","A132545","-","-","","-","-","179.0","Celsius","-","-","-","-","179.0","Celsius","-","-","","-",""
"OCC[NH+](CCO)CCO.CCCCCCCCC=CCCCCCCCC([O-])=O","-","-","AUTO_521","-","A132545","-","-","","-","-","179.0","Celsius","-","-","-","-","179.0","Celsius","-","-","","-",""
"OCC([O-])=O.OCC[NH+](CCO)CCO","-","-","AUTO_522","-","A132545","-","-","","-","-","179.0","Celsius","-","-","-","-","179.0","Celsius","-","-","","-",""
"[I-].C[N+](C)(C)C1=CC=CC=C1","-","-","AUTO_524","-","A132545","-","-","-","-","-","180.0","Celsius","-","-","-","-","180.0","Celsius","-","-","","-",""
"OC([O-])=O.CCCC[N+](CCCC)(CCCC)CCCC","-","-","AUTO_525","-","A132545","-","-","-","-","-","180.0","Celsius","-","-","-","-","180.0","Celsius","-","-","","-",""
"COC([O-])=O.CC[N+](C)(CC)CC","-","-","AUTO_526","-","A132545","-","-","-","-","-","180.0","Celsius","-","-","-","-","180.0","Celsius","-","-","","-",""
"NCCC([O-])=O.CCCC[N+](CCCC)(CCCC)CCCC","-","-","AUTO_527","-","A132545","-","-","-","-","-","180.0","Celsius","-","-","-","-","180.0","Celsius","-","-","","-",""
"[N-]1C=NN=N1.CCCC[N+](CCCC)(CCCC)CCCC","-","-","AUTO_528","-","A132545","-","-","-","-","-","180.0","Celsius","-","-","-","-","180.0","Celsius","-","-","","-",""
"[O-]C(=O)C(F)(F)F.CN1C=C[N+](CC2=CC=CC=C2)=C1","-","-","AUTO_529","-","A132545","-","-","-","-","-","180.0","Celsius","-","-","-","-","180.0","Celsius","-","-","","-",""
"N#C[N-]C#N.CCCCSC[N+]1=CN(C)C=C1","-","-","AUTO_532","-","A139529","18188483","-","-","-","-","180.0","Celsius","-","-","-","-","180.0","Celsius","-","-","","-",""
"N#C[N-]C#N.CCCCCCSC[N+]1=CN(C)C=C1","-","-","AUTO_533","-","A139517","16586524","-","-","-","-","180.0","Celsius","-","-","-","-","180.0","Celsius","-","-","","-",""
"F[B-](F)(F)F.CCCCOCN1C=C[N+](CSCCCC)=C1","-","-","AUTO_534","-","A139517","16586524","-","","-","-","180.0","Celsius","-","-","-","-","180.0","Celsius","-","-","","-",""
"FC(F)(F)S(=O)(=O)[N-]S(=O)(=O)C(F)(F)F.CC(C)[C@@H]1CC[C@@H](C)C[C@H]1OC[N+]2=CC=CC=C2","-","-","AUTO_535","-","A139525","17665379","-","-","-","-","180.0","Celsius","-","-","-","-","180.0","Celsius","-","-","","-",""
"FC(F)(F)S(=O)(=O)[N-]S(=O)(=O)C(F)(F)F.CC(C)[C@@H]1CC[C@@H](C)C[C@H]1OC[N+]2=C(C)C=CC=C2","-","-","AUTO_536","-","A132545","-","-","-","-","-","180.0","Celsius","-","-","-","-","180.0","Celsius","-","-","","-",""
"C[N+](C)(C)C.O=N(=O)C1=C[N-]N=N1","-","-","AUTO_537","-","A132545","-","-","-","-","-","180.0","Celsius","-","-","-","-","180.0","Celsius","-","-","","-",""
"O=N[CH-]N=O.CCN1C=C[N+](C)=C1","-","-","AUTO_538","-","A132545","-","-","-","-","-","180.0","Celsius","-","-","-","-","180.0","Celsius","-","-","","-",""
"[O-]N(=O)=O.CN1C=C[N+](CC#C)=C1","-","-","AUTO_539","-","A132545","-","-","-","-","-","180.0","Celsius","-","-","-","-","180.0","Celsius","-","-","","-",""
"[O-]N(=O)=NN(=O)=O.NN1C=N[N+](CC#N)=C1","-","-","AUTO_540","-","A132545","-","-","-","-","-","180.0","Celsius","-","-","-","-","180.0","Celsius","-","-","","-",""
"[Br-].CCCCCCCCCCCOC1=CC=C(CCOC(=O)CC[C@H](NC(=O)CCC[N+]2=CN(C)C=C2)C(=O)OCCC3=CC(OCCCCCCCCCCC)=C(OCCCCCCCCCCC)C=C3)C=C1OCCCCCCCCCCC","-","-","AUTO_541","-","A132545","-","-","-","-","-","180.0","Celsius","-","-","-","-","180.0","Celsius","-","-","","-",""
"[O-]S(=O)(=O)NC1CCCCC1.CCCCCCCCCCCCCCOC[N+]1=CC=CC=C1","-","-","AUTO_542","-","A132545","-","-","-","-","-","180.0","Celsius","-","-","-","-","180.0","Celsius","-","-","","-",""
"FC(F)(F)S(=O)(=O)[N-]S(=O)(=O)C(F)(F)F.CCCCCCCCCC(=O)OCC[N+](C)(C)COCC","-","-","AUTO_545","-","A102103","17534999","-","-","-","-","180.5","Celsius","-","-","-","-","180.5","Celsius","-","-","","-",""
"FC(F)(F)S(=O)(=O)[N-]S(=O)(=O)C(F)(F)F.CCCCCCCCCC(=O)OCC[N+](C)(C)COCCC","-","-","AUTO_546","-","A102103","17534999","-","-","-","-","180.5","Celsius","-","-","-","-","180.5","Celsius","-","-","","-",""
"FC(F)(F)S(=O)(=O)[N-]S(=O)(=O)C(F)(F)F.CCCCCCCCCC(=O)OCC[N+](C)(C)COCCCC","-","-","AUTO_547","-","A102103","17534999","-","-","-","-","180.5","Celsius","-","-","-","-","180.5","Celsius","-","-","","-",""
"FC(F)(F)S(=O)(=O)[N-]S(=O)(=O)C(F)(F)F.CCCCCCCCCC(=O)OCC[N+](C)(C)COCCCCC","-","-","AUTO_548","-","A102103","17534999","-","-","-","-","180.5","Celsius","-","-","-","-","180.5","Celsius","-","-","","-",""
"FC(F)(F)S(=O)(=O)[N-]S(=O)(=O)C(F)(F)F.CCCCCCCCCC(=O)OCC[N+](C)(C)COCCCCCC","-","-","AUTO_549","-","A102103","17534999","-","-","-","-","180.5","Celsius","-","-","-","-","180.5","Celsius","-","-","","-",""
"FC(F)(F)S(=O)(=O)[N-]S(=O)(=O)C(F)(F)F.CCCCCCCCCC(=O)OCC[N+](C)(C)COCCCCCCC","-","-","AUTO_550","-","A102103","17534999","-","-","-","-","180.5","Celsius","-","-","-","-","180.5","Celsius","-","-","","-",""
"FC(F)(F)S(=O)(=O)[N-]S(=O)(=O)C(F)(F)F.CCCCCCCCCC(=O)OCC[N+](C)(C)COCCCCCCCC","-","-","AUTO_551","-","A102103","17534999","-","-","-","-","180.5","Celsius","-","-","-","-","180.5","Celsius","-","-","","-",""
"FC(F)(F)S(=O)(=O)[N-]S(=O)(=O)C(F)(F)F.CCCCCCCCCOC[N+](C)(C)CCOC(=O)CCCCCCCCC","-","-","AUTO_552","-","A102103","17534999","-","-","-","-","180.5","Celsius","-","-","-","-","180.5","Celsius","-","-","","-",""
"FC(F)(F)S(=O)(=O)[N-]S(=O)(=O)C(F)(F)F.CCCCCCCCCCOC[N+](C)(C)CCOC(=O)CCCCCCCCC","-","-","AUTO_553","-","A102103","17534999","-","-","-","-","180.5","Celsius","-","-","-","-","180.5","Celsius","-","-","","-",""
"FC(F)(F)S(=O)(=O)[N-]S(=O)(=O)C(F)(F)F.CCCCCCCCCCCOC[N+](C)(C)CCOC(=O)CCCCCCCCC","-","-","AUTO_554","-","A102103","17534999","-","-","-","-","180.5","Celsius","-","-","-","-","180.5","Celsius","-","-","","-",""
"FC(F)(F)S(=O)(=O)[N-]S(=O)(=O)C(F)(F)F.CCCCCCCCCCCCOC[N+](C)(C)CCOC(=O)CCCCCCCCC","-","-","AUTO_555","-","A102103","17534999","-","-","-","-","180.5","Celsius","-","-","-","-","180.5","Celsius","-","-","","-",""
"FC(F)(F)S(=O)(=O)[N-]S(=O)(=O)C(F)(F)F.CCCCCCCCCC(=O)OCC[N+](C)(C)COC1CCCCCCCCCCC1","-","-","AUTO_556","-","A102103","17534999","-","-","-","-","180.5","Celsius","-","-","-","-","180.5","Celsius","-","-","","-",""
"C[N+](C)(C)C.NCC([O-])=O","-","-","AUTO_557","-","A132545","-","-","-","-","-","181.0","Celsius","-","-","-","-","181.0","Celsius","-","-","","-",""
"C[N+](C)(C)CCO.COC1=C(C([O-])=O)C(Cl)=CC=C1Cl","-","-","AUTO_558","-","A132545","-","-","-","-","-","181.0","Celsius","-","-","-","-","181.0","Celsius","-","-","","-",""
"[BH3-]C#N.C[N+](C)(N)CC=C","-","-","AUTO_560","-","A139529","18188483","-","-","-","-","181.0","Celsius","-","-","-","-","181.0","Celsius","-","-","","-",""
"N#C[N-]C#N.CCCCCCOC(=O)C[N+](C)(C)C","-","-","AUTO_561","-","A139565","24737218","-","-","-","-","181.0","Celsius","-","-","-","-","181.0","Celsius","-","-","","-",""
"[Cl-].CC[N+](CC)(CC)CC1=CC=CC=C1","-","-","AUTO_563","-","A132545","-","-","-","-","-","182.0","Celsius","-","-","-","-","182.0","Celsius","-","-","","-",""
"CC([O-])=O.C1C[NH+]2CCCN=C2C1","-","-","AUTO_564","-","A132545","-","-","","-","-","182.0","Celsius","-","-","-","-","182.0","Celsius","-","-","","-",""
"[O-]N(=O)=O.[NH2+]1C=NC=N1","-","-","AUTO_565","-","A132545","-","-","","-","-","182.0","Celsius","-","-","-","-","182.0","Celsius","-","-","","-",""
"[Cl-].CC(C)(C)CC(C)(C)C1=CC=C(COCOCC[N+](C)(C)CC2=CC=CC=C2)C=C1","-","-","AUTO_569","-","A132545","-","-","-","-","-","182.0","Celsius","-","-","-","-","182.0","Celsius","-","-","","-",""
"COCCOCCOCCOCC([O-])=O.CCCCCC(CCCCCCCCCCCC[NH3+])C","-","-","AUTO_570","-","A132545","-","-","","-","-","182.0","Celsius","-","-","-","-","182.0","Celsius","-","-","","-",""
"OCC[NH2+]CCO.[O-]C(=O)CCCCC(O)=O","-","-","AUTO_571","-","A132545","-","-","","-","-","182.0","Celsius","-","-","-","-","182.0","Celsius","-","-","","-",""
"OC(CC(O)=O)C([O-])=O.OCC[NH+](CCO)CCO","-","-","AUTO_572","-","A132545","-","-","","-","-","182.0","Celsius","-","-","-","-","182.0","Celsius","-","-","","-",""
"OCC[NH2+]CCO.OC(C(O)C([O-])=O)C(O)=O","-","-","AUTO_573","-","A132545","-","-","","-","-","182.0","Celsius","-","-","-","-","182.0","Celsius","-","-","","-",""
"O=N(=O)C1=NC(=C([N-]1)N(=O)=O)N(=O)=O.CCN1C=[N+](CC)C(=C1N(=O)=O)N(=O)=O","-","-","AUTO_574","-","A132545","-","-","-","-","-","182.0","Celsius","-","-","-","-","182.0","Celsius","-","-","","-",""
"O=N(=O)[N-]N(=O)=O.FS(F)(F)(F)(F)CCC[N+]1=CC=CC=C1","-","-","AUTO_575","-","A132545","-","-","-","-","-","182.3","Celsius","-","-","-","-","182.3","Celsius","-","-","","-",""
"CC[NH2+]CC.[O-]C(=O)C1=CC=CC=C1N=NC2=CC=C(O)C=C2","-","-","AUTO_576","-","A139592","32006830","-","","-","-","182.5","Celsius","-","-","-","-","182.5","Celsius","-","-","","-",""
"CC1=CC=C(C=C1)S([O-])(=O)=O.CN1C=C[N+](CC2=CC=CC=C2)=C1","-","-","AUTO_579","-","A139525","17665379","-","-","-","-","183.0","Celsius","-","-","-","-","183.0","Celsius","-","-","","-",""
"CC([O-])=O.CC[N+]1=C2CCCN2CCC1","-","-","AUTO_582","-","A132545","-","-","-","-","-","183.0","Celsius","-","-","-","-","183.0","Celsius","-","-","","-",""
"[N-]1C=CN=C1.CCCCCCCCCCCCCCCC[N+](C)(C)CC","-","-","AUTO_583","-","A132545","-","-","-","-","-","183.0","Celsius","-","-","-","-","183.0","Celsius","-","-","","-",""
"COCC([O-])=O.OCC[NH2+]CCO","-","-","AUTO_584","-","A132545","-","-","","-","-","183.0","Celsius","-","-","-","-","183.0","Celsius","-","-","","-",""
"NCCC([O-])=O.CC[N+](CC)(CC)CC","-","-","AUTO_585","-","A139529","18188483","-","-","-","-","184.0","Celsius","-","-","-","-","184.0","Celsius","-","-","","-",""
"OCC[NH+](CCO)CCO.O[C@@H]1C[C@@](O)(C[C@@H](O)[C@H]1O)C([O-])=O","-","-","AUTO_587","-","A132545","-","-","","-","-","184.0","Celsius","-","-","-","-","184.0","Celsius","-","-","","-",""
"[Br-].CCCCCCCCCCN1C=CC=[N+]1CCCCCCCCCC","-","-","AUTO_588","-","A132545","-","-","-","-","-","184.8","Celsius","-","-","-","-","184.8","Celsius","-","-","","-",""
"CCOS([O-])(=O)=O.CCOC(=O)C1=C[N+](CC)=CC=C1","-","-","AUTO_589","-","A132545","-","-","-","-","-","184.85","Celsius","-","-","-","-","184.85","Celsius","-","-","","-",""
"CCCC[N+]1=CN(C)C=C1.C1=CC=C(C=C1)[B-](C2=CC=CC=C2)(C3=CC=CC=C3)C4=CC=CC=C4","-","-","AUTO_591","-","A132545","-","-","-","-","-","185.0","Celsius","-","-","-","-","185.0","Celsius","-","-","","-",""
"CC(C)[C@H](N)C([O-])=O.CCCC[N+](CCCC)(CCCC)CCCC","-","-","AUTO_592","-","A139529","18188483","-","-","-","-","185.0","Celsius","-","-","-","-","185.0","Celsius","-","-","","-",""
"C[C@H](N)C([O-])=O.CC[N+](CC)(CC)CC","-","-","AUTO_593","-","A139529","18188483","-","-","-","-","185.0","Celsius","-","-","-","-","185.0","Celsius","-","-","","-",""
"OC(=O)CCC([O-])=O.OCC[NH+](CCO)CCO","-","-","AUTO_594","-","A132545","-","-","","-","-","185.0","Celsius","-","-","-","-","185.0","Celsius","-","-","","-",""
"COP([O-])(=O)OC.CCCC[N+](C)(CCCC)CCCC","-","-","AUTO_595","-","A132545","-","-","-","-","-","185.0","Celsius","-","-","-","-","185.0","Celsius","-","-","","-",""
"CCCCCCC1=C[N-]N=N1.CCCC[P+](CCCC)(CCCC)CCCC","-","-","AUTO_596","-","A132545","-","-","-","-","-","185.0","Celsius","-","-","-","-","185.0","Celsius","-","-","","-",""
"C[NH+]1C=NC=N1.[O-]C1=C(C=C(C=C1N(=O)=O)N(=O)=O)N(=O)=O","-","-","AUTO_597","-","A132545","-","-","","-","-","185.0","Celsius","-","-","-","-","185.0","Celsius","-","-","","-",""
"[O-]C(=O)C(F)(F)F.CCCCSC[N+]1=CN(C)C=C1","-","-","AUTO_599","-","A132545","-","-","-","-","-","185.0","Celsius","-","-","-","-","185.0","Celsius","-","-","","-",""
"N#C[N-]C#N.CCCCCCCCSC[N+]1=CN(C)C=C1","-","-","AUTO_600","-","A132545","-","-","-","-","-","185.0","Celsius","-","-","-","-","185.0","Celsius","-","-","","-",""
"[O-]C(=O)C(F)(F)F.CCCCCCSC[N+]1=CN(C)C=C1","-","-","AUTO_601","-","A132545","-","-","-","-","-","185.0","Celsius","-","-","-","-","185.0","Celsius","-","-","","-",""
"[O-]C(=O)C(F)(F)F.CCCCCCCCSC[N+]1=CN(C)C=C1","-","-","AUTO_602","-","A132545","-","-","-","-","-","185.0","Celsius","-","-","-","-","185.0","Celsius","-","-","","-",""
"F[B-](F)(F)F.CCCCCCSC[N+]1=CN(COCCCC)C=C1","-","-","AUTO_603","-","A132545","-","-","","-","-","185.0","Celsius","-","-","-","-","185.0","Celsius","-","-","","-",""
"OCC([O-])=O.OCC[NH2+]CCO","-","-","AUTO_606","-","A132545","-","-","","-","-","185.0","Celsius","-","-","-","-","185.0","Celsius","-","-","","-",""
"F[P-](F)(F)(F)(F)F.[C@@H]12C[C@@H]([C@H](C)[C@H](C1)OC[N+]3=CC=CC=C3)C2(C)C","-","-","AUTO_607","-","A132545","-","-","","-","-","185.0","Celsius","-","-","-","-","185.0","Celsius","-","-","","-",""
"[Br-].CCCCCCN1C=CC=[N+]1CCCCCC","-","-","AUTO_609","-","A132545","-","-","-","-","-","185.8","Celsius","-","-","-","-","185.8","Celsius","-","-","","-",""
"[Br-].CCCCCC[N+]1=CN(C)C(=C1)C#CC2=C3C=CC4=CC=C(C#CC5=CN=CN5C)C6=CC=C(C=C2)C3=C46","-","-","AUTO_610","-","A132545","-","-","-","-","-","185.8","Celsius","-","-","-","-","185.8","Celsius","-","-","","-",""
"[Br-].CCCCCCCC[N+]1=CC=CC(C)=C1","-","-","AUTO_611","-","A132545","-","-","-","-","-","185.85","Celsius","-","-","-","-","185.85","Celsius","-","-","","-",""
"[Br-].CCCCCCCCN1C=CC=[N+]1CCCCCCCC","-","-","AUTO_614","-","A132545","-","-","-","-","-","186.0","Celsius","-","-","-","-","186.0","Celsius","-","-","","-",""
"O=N(=O)[CH-]N(=O)=O.CCN1C=C[N+](C)=C1","-","-","AUTO_617","-","A132545","-","-","-","-","-","186.0","Celsius","-","-","-","-","186.0","Celsius","-","-","","-",""
"[Br-].CCCCCCCCCCCC[N+]1(C[C@@H]2CCCN2)CCCC1","-","-","AUTO_618","-","A132545","-","-","-","-","-","186.0","Celsius","-","-","-","-","186.0","Celsius","-","-","","-",""
"OCC[NH+](CCO)CCO.CCCCCC=CCC=CCCCCCCCC([O-])=O","-","-","AUTO_619","-","A132545","-","-","","-","-","186.0","Celsius","-","-","-","-","186.0","Celsius","-","-","","-",""
"[Br-].CCCCCCCC[N+]1=CC=CC=C1","-","-","AUTO_623","-","A132545","-","-","-","-","-","186.85","Celsius","-","-","-","-","186.85","Celsius","-","-","","-",""
"[I-].C[N+]1(CCC#N)CCCC1","-","-","AUTO_624","-","A132545","-","-","-","-","-","187.0","Celsius","-","-","-","-","187.0","Celsius","-","-","","-",""