"SMILES","CASRN","EXTERNALID","N","NAME","ARTICLEID","PUBMEDID","PAGE","TABLE","Melting Point","UNIT {Melting Point}","Decomposition","UNIT {Decomposition}","Glass-transition temperature (Tg)","UNIT {Glass-transition temperature (Tg)}","Melting Point {measured, converted}","UNIT {Melting Point}","Decomposition {measured, converted}","UNIT {Decomposition}","Glass-transition temperature (Tg) {measured, converted}","UNIT {Glass-transition temperature (Tg)}","weight loss","UNIT {weight loss}","Solvent"
"C[NH+]1C=NC=C1.F[B-](F)(F)F","-","-","AUTO_575","C0582_A0020","A133072","-","-","-","-","-","387.0","Celsius","-","-","-","-","387.0","Celsius","-","-","","-",""
"C[NH+]1C=CN=C1C.F[B-](F)(F)F","-","-","AUTO_576","C1130_A0020","A133072","-","-","-","-","-","365.0","Celsius","-","-","-","-","365.0","Celsius","-","-","","-",""
"CN1C=C[N+](=C1)C.COS(=O)(=O)[O-]","-","-","AUTO_577","C0958_A0044","A133072","-","-","-","-","-","396.0","Celsius","-","-","-","-","396.0","Celsius","-","-","","-",""
"CN1C=C[N+](=C1C)C.COS(=O)(=O)[O-]","-","-","AUTO_578","C1086_A0044","A133072","-","-","-","-","-","372.0","Celsius","-","-","-","-","372.0","Celsius","-","-","","-",""
"CC[N+]=1C=CN(C1)C.COS(=O)(=O)[O-]","-","-","AUTO_579","C0460_A0044","A133072","-","-","-","-","-","390.0","Celsius","-","-","-","-","390.0","Celsius","-","-","","-",""
"CC[N+]=1C=CN(C1)C.C(C)OS(=O)(=O)[O-]","-","-","AUTO_580","C0460_A0083","A133072","-","-","-","-","-","408.0","Celsius","-","-","-","-","408.0","Celsius","-","-","","-",""
"CC[N+]=1C=CN(C1)C.N#C[C-](C=C(C#N)C#N)C#N","-","-","AUTO_581","C0460_A0127","A133072","-","-","-","-","-","341.0","Celsius","-","-","-","-","341.0","Celsius","-","-","","-",""
"CC[N+]=1C=CN(C1)C.N#C[C-](C(=C(C#N)C#N)C)C#N","-","-","AUTO_582","C0460_A0130","A133072","-","-","-","-","-","254.0","Celsius","-","-","-","-","254.0","Celsius","-","-","","-",""
"CC[N+]=1C=CN(C1)C.N#C[C-](C(=C(C#N)C#N)C#N)C#N","-","-","AUTO_583","C0460_A0126","A133072","-","-","-","-","-","327.0","Celsius","-","-","-","-","327.0","Celsius","-","-","","-",""
"CC[N+]=1C=CN(C1)C.N#CCC(=C(C#N)C#N)[C-](C#N)C#N","-","-","AUTO_584","C0460_A0128","A133072","-","-","-","-","-","280.0","Celsius","-","-","-","-","280.0","Celsius","-","-","","-",""
"CC[N+]=1C=CN(C1)C.N#C[C-](C(=C(C#N)C#N)OC)C#N","-","-","AUTO_585","C0460_A0129","A133072","-","-","-","-","-","254.0","Celsius","-","-","-","-","254.0","Celsius","-","-","","-",""
"CCN1C=C[N+](=C1)CC.C(C)OS(=O)(=O)[O-]","-","-","AUTO_586","C0064_A0083","A133072","-","-","-","-","-","389.0","Celsius","-","-","-","-","389.0","Celsius","-","-","","-",""
"CCCC[N+]=1C=CN(C1)C.COS(=O)(=O)[O-]","-","-","AUTO_587","C0505_A0044","A133072","-","-","-","-","-","392.0","Celsius","-","-","-","-","392.0","Celsius","-","-","","-",""
"CCCC[N+]=1C=CN(C1)C.N#C[C-](C=C(C#N)C#N)C#N","-","-","AUTO_588","C0505_A0127","A133072","-","-","-","-","-","295.0","Celsius","-","-","-","-","295.0","Celsius","-","-","","-",""
"CCCC[N+]=1C=CN(C1)C.N#C[C-](C(=C(C#N)C#N)C)C#N","-","-","AUTO_589","C0505_A0130","A133072","-","-","-","-","-","261.0","Celsius","-","-","-","-","261.0","Celsius","-","-","","-",""
"CCCC[N+]=1C=CN(C1)C.N#C[C-](C(=C(C#N)C#N)C#N)C#N","-","-","AUTO_590","C0505_A0126","A133072","-","-","-","-","-","302.0","Celsius","-","-","-","-","302.0","Celsius","-","-","","-",""
"CCCC[N+]=1C=CN(C1)C.N#CCC(=C(C#N)C#N)[C-](C#N)C#N","-","-","AUTO_591","C0505_A0128","A133072","-","-","-","-","-","286.0","Celsius","-","-","-","-","286.0","Celsius","-","-","","-",""
"CCCC[N+]=1C=CN(C1)C.N#C[C-](C(=C(C#N)C#N)OC)C#N","-","-","AUTO_592","C0505_A0129","A133072","-","-","-","-","-","265.0","Celsius","-","-","-","-","265.0","Celsius","-","-","","-",""
"CCCC[N+]=1C=CN(C1)CC.C(C)OS(=O)(=O)[O-]","-","-","AUTO_593","C0835_A0083","A133072","-","-","-","-","-","387.0","Celsius","-","-","-","-","387.0","Celsius","-","-","","-",""
"CC1=CN(C=[N+]1CCCC#N)C.FC(S(=O)(=O)[N-]S(=O)(=O)C(F)(F)F)(F)F","-","-","AUTO_594","C1378_A0048","A133072","-","-","-","-","-","384.0","Celsius","-","-","-","-","384.0","Celsius","-","-","","-",""
"CC1=CN(C=[N+]1CCCC#N)C.F[B-](F)(F)F","-","-","AUTO_595","C1378_A0020","A133072","-","-","-","-","-","265.0","Celsius","-","-","-","-","265.0","Celsius","-","-","","-",""
"CC1=CN(C=[N+]1CCCC#N)C.[Cl-]","-","-","AUTO_596","C1378_A0033","A133072","-","-","-","-","-","255.0","Celsius","-","-","-","-","255.0","Celsius","-","-","","-",""
"CC1=CN(C=[N+]1CCCC#N)C.F[P-](F)(F)(F)(F)F","-","-","AUTO_597","C1378_A0011","A133072","-","-","-","-","-","275.0","Celsius","-","-","-","-","275.0","Celsius","-","-","","-",""
"CC1=CN(C=[N+]1CCCC#N)C.C(#N)[N-]C#N","-","-","AUTO_598","C1378_A0056","A133072","-","-","-","-","-","278.0","Celsius","-","-","-","-","278.0","Celsius","-","-","","-",""
"N#CCCCN1C=C[N+](=C1)C.FC(S(=O)(=O)[N-]S(=O)(=O)C(F)(F)F)(F)F","-","-","AUTO_599","C0083_A0048","A133072","-","-","-","-","-","425.0","Celsius","-","-","-","-","425.0","Celsius","-","-","","-",""
"N#CCCCN1C=C[N+](=C1)C.F[B-](F)(F)F","-","-","AUTO_600","C0083_A0020","A133072","-","-","-","-","-","352.0","Celsius","-","-","-","-","352.0","Celsius","-","-","","-",""
"N#CCCCN1C=C[N+](=C1)C.[Cl-]","-","-","AUTO_601","C0083_A0033","A133072","-","-","-","-","-","258.0","Celsius","-","-","-","-","258.0","Celsius","-","-","","-",""
"N#CCCCN1C=C[N+](=C1)C.F[P-](F)(F)(F)(F)F","-","-","AUTO_602","C0083_A0011","A133072","-","-","-","-","-","370.0","Celsius","-","-","-","-","370.0","Celsius","-","-","","-",""
"N#CCCCN1C=C[N+](=C1)C.C(#N)[N-]C#N","-","-","AUTO_603","C0083_A0056","A133072","-","-","-","-","-","289.0","Celsius","-","-","-","-","289.0","Celsius","-","-","","-",""
"CC[C@H]([N+]=1C=CN(C1)C)N.[Br-]","-","-","AUTO_604","C1408_A0004","A133072","-","-","-","-","-","226.0","Celsius","-","-","-","-","226.0","Celsius","-","-","","-",""
"CC[C@H]([N+]=1C=CN(C1)C)N.F[B-](F)(F)F","-","-","AUTO_605","C1408_A0020","A133072","-","-","-","-","-","261.0","Celsius","-","-","-","-","261.0","Celsius","-","-","","-",""
"CC[C@H]([N+]=1C=CN(C1)C)N.F[P-](F)(F)(F)(F)F","-","-","AUTO_606","C1408_A0011","A133072","-","-","-","-","-","218.0","Celsius","-","-","-","-","218.0","Celsius","-","-","","-",""
"CC(C[C@H]([N+]=1C=CN(C1)C)N)C.[Br-]","-","-","AUTO_607","C1407_A0004","A133072","-","-","-","-","-","270.0","Celsius","-","-","-","-","270.0","Celsius","-","-","","-",""
"CC(C[C@H]([N+]=1C=CN(C1)C)N)C.F[B-](F)(F)F","-","-","AUTO_608","C1407_A0020","A133072","-","-","-","-","-","281.0","Celsius","-","-","-","-","281.0","Celsius","-","-","","-",""
"CC(C[C@H]([N+]=1C=CN(C1)C)N)C.F[P-](F)(F)(F)(F)F","-","-","AUTO_609","C1407_A0011","A133072","-","-","-","-","-","287.0","Celsius","-","-","-","-","287.0","Celsius","-","-","","-",""
"CC(CC[C@H]([N+]=1C=CN(C1)C)N)C.[Br-]","-","-","AUTO_610","C1406_A0004","A133072","-","-","-","-","-","267.0","Celsius","-","-","-","-","267.0","Celsius","-","-","","-",""
"CC(CC[C@H]([N+]=1C=CN(C1)C)N)C.F[B-](F)(F)F","-","-","AUTO_611","C1406_A0020","A133072","-","-","-","-","-","291.0","Celsius","-","-","-","-","291.0","Celsius","-","-","","-",""
"CC(CC[C@H]([N+]=1C=CN(C1)C)N)C.F[P-](F)(F)(F)(F)F","-","-","AUTO_612","C1406_A0011","A133072","-","-","-","-","-","287.0","Celsius","-","-","-","-","287.0","Celsius","-","-","","-",""
"CC[C@H](C[C@H]([N+]=1C=CN(C1)C)N)C.[Br-]","-","-","AUTO_613","C1405_A0004","A133072","-","-","-","-","-","268.0","Celsius","-","-","-","-","268.0","Celsius","-","-","","-",""
"CC[C@H](C[C@H]([N+]=1C=CN(C1)C)N)C.F[B-](F)(F)F","-","-","AUTO_614","C1405_A0020","A133072","-","-","-","-","-","285.0","Celsius","-","-","-","-","285.0","Celsius","-","-","","-",""
"CC[C@H](C[C@H]([N+]=1C=CN(C1)C)N)C.F[P-](F)(F)(F)(F)F","-","-","AUTO_615","C1405_A0011","A133072","-","-","-","-","-","281.0","Celsius","-","-","-","-","281.0","Celsius","-","-","","-",""
"CCC[N+]=1C=CN(C1)C.COS(=O)(=O)[O-]","-","-","AUTO_616","C0811_A0044","A133072","-","-","-","-","-","389.0","Celsius","-","-","-","-","389.0","Celsius","-","-","","-",""
"N#CCCC[N+]1=CC=CC=C1.FC(S(=O)(=O)[N-]S(=O)(=O)C(F)(F)F)(F)F","-","-","AUTO_617","C0233_A0048","A133072","-","-","-","-","-","274.0","Celsius","-","-","-","-","274.0","Celsius","-","-","","-",""
"N#CCCC[N+]1=CC=CC=C1.F[B-](F)(F)F","-","-","AUTO_618","C0233_A0020","A133072","-","-","-","-","-","321.0","Celsius","-","-","-","-","321.0","Celsius","-","-","","-",""
"N#CCCC[N+]1=CC=CC=C1.[Cl-]","-","-","AUTO_619","C0233_A0033","A133072","-","-","-","-","-","224.0","Celsius","-","-","-","-","224.0","Celsius","-","-","","-",""
"N#CCCC[N+]1=CC=CC=C1.F[P-](F)(F)(F)(F)F","-","-","AUTO_620","C0233_A0011","A133072","-","-","-","-","-","331.0","Celsius","-","-","-","-","331.0","Celsius","-","-","","-",""
"N#CCCC[N+]1=CC=CC=C1.C(#N)[N-]C#N","-","-","AUTO_621","C0233_A0056","A133072","-","-","-","-","-","226.0","Celsius","-","-","-","-","226.0","Celsius","-","-","","-",""
"C(CCCCCCC)[N+]1=CC=CC=C1.FC(S(=O)(=O)[O-])(F)F","-","-","AUTO_622","C1315_A0084","A133072","-","-","-","-","-","280.0","Celsius","-","-","-","-","280.0","Celsius","-","-","","-",""
"C(CCCCCCC)[N+]1=CC=CC=C1.FC(S(=O)(=O)[N-]S(=O)(=O)C(F)(F)F)(F)F","-","-","AUTO_623","C1315_A0048","A133072","-","-","-","-","-","320.0","Celsius","-","-","-","-","320.0","Celsius","-","-","","-",""
"C(CCCCCCC)[N+]1=CC=CC=C1.FC(C(C(C(F)(F)F)(F)F)(F)F)(S(=O)(=O)[O-])F","-","-","AUTO_624","C1315_A0079","A133072","-","-","-","-","-","294.0","Celsius","-","-","-","-","294.0","Celsius","-","-","","-",""
"CCCCCCCC[N+]1=CC=CC=C1C.FC(S(=O)(=O)[O-])(F)F","-","-","AUTO_625","C1399_A0084","A133072","-","-","-","-","-","275.0","Celsius","-","-","-","-","275.0","Celsius","-","-","","-",""
"CCCCCCCC[N+]1=CC=CC=C1C.FC(S(=O)(=O)[N-]S(=O)(=O)C(F)(F)F)(F)F","-","-","AUTO_626","C1399_A0048","A133072","-","-","-","-","-","290.0","Celsius","-","-","-","-","290.0","Celsius","-","-","","-",""
"CCCCCCCC[N+]1=CC=CC=C1C.FC(C(C(C(F)(F)F)(F)F)(F)F)(S(=O)(=O)[O-])F","-","-","AUTO_627","C1399_A0079","A133072","-","-","-","-","-","292.0","Celsius","-","-","-","-","292.0","Celsius","-","-","","-",""
"C(CCCCCCC)[N+]1=CC=C(C=C1)C.FC(S(=O)(=O)[O-])(F)F","-","-","AUTO_628","C1297_A0084","A133072","-","-","-","-","-","296.0","Celsius","-","-","-","-","296.0","Celsius","-","-","","-",""
"C(CCCCCCC)[N+]1=CC=C(C=C1)C.FC(S(=O)(=O)[N-]S(=O)(=O)C(F)(F)F)(F)F","-","-","AUTO_629","C1297_A0048","A133072","-","-","-","-","-","300.0","Celsius","-","-","-","-","300.0","Celsius","-","-","","-",""
"C(CCCCCCC)[N+]1=CC=C(C=C1)C.F[B-](F)(F)F","-","-","AUTO_630","C1297_A0020","A133072","-","-","-","-","-","290.0","Celsius","-","-","-","-","290.0","Celsius","-","-","","-",""
"C(CCCCCCC)[N+]1=CC=C(C=C1)C.FC(C(C(C(F)(F)F)(F)F)(F)F)(S(=O)(=O)[O-])F","-","-","AUTO_631","C1297_A0079","A133072","-","-","-","-","-","298.0","Celsius","-","-","-","-","298.0","Celsius","-","-","","-",""
"C(CCCCCCC)[N+]1=CC=C(C=C1)C.FC(F)(F)C(F)(F)S(=O)(=O)[N-]S(=O)(=O)C(F)(F)C(F)(F)F","-","-","AUTO_632","C1297_A0067","A133072","-","-","-","-","-","325.0","Celsius","-","-","-","-","325.0","Celsius","-","-","","-",""
"C(CCCCCCC)[N+]1=CC=C(C=C1)C.F[B-](C1=CC=CC=C1)(F)F","-","-","AUTO_633","C1297_A0148","A133072","-","-","-","-","-","205.0","Celsius","-","-","-","-","205.0","Celsius","-","-","","-",""
"CC=1C=[N+](C=CC1)CCCCCCCC.F[B-](F)(F)F","-","-","AUTO_634","C1323_A0020","A133072","-","-","-","-","-","310.0","Celsius","-","-","-","-","310.0","Celsius","-","-","","-",""
"COC(=O)[C@@H]1CCC[N+]1(C)C.F[P-](F)(F)(F)(F)F","-","-","AUTO_635","C1469_A0011","A133072","-","-","-","-","-","299.0","Celsius","-","-","-","-","299.0","Celsius","-","-","","-",""
"COC(=O)[C@@H]1CCC[N+]1(C)C.[N+](=O)([O-])[O-]","-","-","AUTO_636","C1469_A0090","A133072","-","-","-","-","-","215.0","Celsius","-","-","-","-","215.0","Celsius","-","-","","-",""
"COC(=O)[C@@H]1CCC[N+]1(C)C.[I-]","-","-","AUTO_637","C1469_A0069","A133072","-","-","-","-","-","201.0","Celsius","-","-","-","-","201.0","Celsius","-","-","","-",""
"CCOC(=O)[C@@H]1CCC[N+]1(CC)CC.[Br-]","-","-","AUTO_638","C1466_A0004","A133072","-","-","-","-","-","185.0","Celsius","-","-","-","-","185.0","Celsius","-","-","","-",""
"CCOC(=O)[C@@H]1CCC[N+]1(CC)CC.F[B-](F)(F)F","-","-","AUTO_639","C1466_A0020","A133072","-","-","-","-","-","323.0","Celsius","-","-","-","-","323.0","Celsius","-","-","","-",""
"CCOC(=O)[C@@H]1CCC[N+]1(CC)CC.F[P-](F)(F)(F)(F)F","-","-","AUTO_640","C1466_A0011","A133072","-","-","-","-","-","338.0","Celsius","-","-","-","-","338.0","Celsius","-","-","","-",""
"CCOC(=O)[C@@H]1CCC[N+]1(CC)CC.[N+](=O)([O-])[O-]","-","-","AUTO_641","C1466_A0090","A133072","-","-","-","-","-","216.0","Celsius","-","-","-","-","216.0","Celsius","-","-","","-",""
"CCOC(=O)[C@@H]1CCC[N+]1(CC)CC.[I-]","-","-","AUTO_642","C1466_A0069","A133072","-","-","-","-","-","195.0","Celsius","-","-","-","-","195.0","Celsius","-","-","","-",""
"CCOC(=O)[C@@H]1CCC[N+]1(C)C.F[B-](F)(F)F","-","-","AUTO_643","C1468_A0020","A133072","-","-","-","-","-","324.0","Celsius","-","-","-","-","324.0","Celsius","-","-","","-",""
"CCOC(=O)[C@@H]1CCC[N+]1(C)C.F[P-](F)(F)(F)(F)F","-","-","AUTO_644","C1468_A0011","A133072","-","-","-","-","-","339.0","Celsius","-","-","-","-","339.0","Celsius","-","-","","-",""
"CCOC(=O)[C@@H]1CCC[N+]1(C)C.[N+](=O)([O-])[O-]","-","-","AUTO_645","C1468_A0090","A133072","-","-","-","-","-","210.0","Celsius","-","-","-","-","210.0","Celsius","-","-","","-",""
"CCOC(=O)[C@@H]1CCC[N+]1(C)C.[I-]","-","-","AUTO_646","C1468_A0069","A133072","-","-","-","-","-","188.0","Celsius","-","-","-","-","188.0","Celsius","-","-","","-",""
"COC(=O)[C@@H]1CCC[N+]1(CC)CC.[Br-]","-","-","AUTO_647","C1467_A0004","A133072","-","-","-","-","-","193.0","Celsius","-","-","-","-","193.0","Celsius","-","-","","-",""
"COC(=O)[C@@H]1CCC[N+]1(CC)CC.[I-]","-","-","AUTO_648","C1467_A0069","A133072","-","-","-","-","-","188.0","Celsius","-","-","-","-","188.0","Celsius","-","-","","-",""
"C[NH3+].S(C)(=O)(=O)[O-]","-","-","AUTO_649","C0679_A0054","A133072","-","-","-","-","-","260.0","Celsius","-","-","-","-","260.0","Celsius","-","-","","-",""
"CC[NH3+].S(C)(=O)(=O)[O-]","-","-","AUTO_650","C0843_A0054","A133072","-","-","-","-","-","289.0","Celsius","-","-","-","-","289.0","Celsius","-","-","","-",""
"CCCC[NH3+].F[B-](F)(F)F","-","-","AUTO_651","C0600_A0020","A133072","-","-","-","-","-","311.0","Celsius","-","-","-","-","311.0","Celsius","-","-","","-",""
"CCCC[NH3+].S(C)(=O)(=O)[O-]","-","-","AUTO_652","C0600_A0054","A133072","-","-","-","-","-","292.0","Celsius","-","-","-","-","292.0","Celsius","-","-","","-",""
"CO[C@@H]([NH3+])C.F[B-](F)(F)F","-","-","AUTO_653","C1448_A0020","A133072","-","-","-","-","-","207.0","Celsius","-","-","-","-","207.0","Celsius","-","-","","-",""
"CO[C@@H]([NH3+])C.S(C)(=O)(=O)[O-]","-","-","AUTO_654","C1448_A0054","A133072","-","-","-","-","-","282.0","Celsius","-","-","-","-","282.0","Celsius","-","-","","-",""
"OCC[NH3+].C(C)(=O)[O-]","-","-","AUTO_655","C0449_A0087","A133072","-","-","-","-","-","166.0","Celsius","-","-","-","-","166.0","Celsius","-","-","","-",""
"OCC[NH3+].C(=O)[O-]","-","-","AUTO_656","C0449_A0024","A133072","-","-","-","-","-","150.0","Celsius","-","-","-","-","150.0","Celsius","-","-","","-",""
"OCC[NH3+].C(C(O)C)(=O)[O-]","-","-","AUTO_657","C0449_A0081","A133072","-","-","","-","-","247.0","Celsius","-","-","-","-","247.0","Celsius","-","-","","-",""
"CC[N+](CCCC(F)(F)F)(C)C.FC(S(=O)(=O)[N-]S(=O)(=O)C(F)(F)F)(F)F","-","-","AUTO_658","C1461_A0048","A133072","-","-","-","-","-","410.0","Celsius","-","-","-","-","410.0","Celsius","-","-","","-",""
"C[NH2+]C.S(C)(=O)(=O)[O-]","-","-","AUTO_659","C1428_A0054","A133072","-","-","-","-","-","278.0","Celsius","-","-","-","-","278.0","Celsius","-","-","","-",""
"CCCC[NH2+]C.F[B-](F)(F)F","-","-","AUTO_660","C1450_A0020","A133072","-","-","-","-","-","350.0","Celsius","-","-","-","-","350.0","Celsius","-","-","","-",""
"CC[NH2+]CC.S(C)(=O)(=O)[O-]","-","-","AUTO_661","C1166_A0054","A133072","-","-","-","-","-","278.0","Celsius","-","-","-","-","278.0","Celsius","-","-","","-",""
"CCCC[NH2+]CCCC.F[B-](F)(F)F","-","-","AUTO_662","C0287_A0020","A133072","-","-","-","-","-","330.0","Celsius","-","-","-","-","330.0","Celsius","-","-","","-",""
"CCCC[NH2+]CCCC.S(C)(=O)(=O)[O-]","-","-","AUTO_663","C0287_A0054","A133072","-","-","-","-","-","332.0","Celsius","-","-","-","-","332.0","Celsius","-","-","","-",""
"CC[NH+](C)C.S(C)(=O)(=O)[O-]","-","-","AUTO_664","C1430_A0054","A133072","-","-","-","-","-","296.0","Celsius","-","-","-","-","296.0","Celsius","-","-","","-",""
"CC[NH+](CC)CC.F[B-](F)(F)F","-","-","AUTO_665","C0473_A0020","A133072","-","-","-","-","-","287.0","Celsius","-","-","-","-","287.0","Celsius","-","-","","-",""
"CC[NH+](CC)CC.S(C)(=O)(=O)[O-]","-","-","AUTO_666","C0473_A0054","A133072","-","-","-","-","-","270.0","Celsius","-","-","-","-","270.0","Celsius","-","-","","-",""
"OCC[NH+](CCO)CCO.C(C)(=O)[O-]","-","-","AUTO_667","C1164_A0087","A133072","-","-","-","-","-","237.0","Celsius","-","-","-","-","237.0","Celsius","-","-","","-",""
"OCC[NH+](CCO)CCO.C(=O)[O-]","-","-","AUTO_668","C1164_A0024","A133072","-","-","-","-","-","234.0","Celsius","-","-","-","-","234.0","Celsius","-","-","","-",""
"OCC[NH+](CCO)CCO.C([C@@H](O)C)(=O)[O-]","-","-","AUTO_669","C1164_A0081","A133072","-","-","-","-","-","238.0","Celsius","-","-","-","-","238.0","Celsius","-","-","","-",""
"CCCCCCCCCCCC[N+](CC)(CC)CC.FC(S(=O)(=O)[N-]S(=O)(=O)C(F)(F)F)(F)F","-","-","AUTO_670","C1115_A0048","A133072","-","-","-","-","-","390.0","Celsius","-","-","-","-","390.0","Celsius","-","-","","-",""
"COC[N+](CC)(CC)CC.FC(S(=O)(=O)[N-]S(=O)(=O)C(F)(F)F)(F)F","-","-","AUTO_671","C0716_A0048","A133072","-","-","-","-","-","287.0","Celsius","-","-","-","-","287.0","Celsius","-","-","","-",""
"CC([NH3+])(C)C.F[B-](F)(F)F","-","-","AUTO_672","C1486_A0020","A133072","-","-","-","-","-","244.0","Celsius","-","-","-","-","244.0","Celsius","-","-","","-",""
"N#CCCC[N+](C)(C)C.FC(S(=O)(=O)[N-]S(=O)(=O)C(F)(F)F)(F)F","-","-","AUTO_673","C1417_A0048","A133072","-","-","-","-","-","363.0","Celsius","-","-","-","-","363.0","Celsius","-","-","","-",""
"N#CCCC[N+](C)(C)C.F[B-](F)(F)F","-","-","AUTO_674","C1417_A0020","A133072","-","-","-","-","-","249.0","Celsius","-","-","-","-","249.0","Celsius","-","-","","-",""
"N#CCCC[N+](C)(C)C.[Cl-]","-","-","AUTO_675","C1417_A0033","A133072","-","-","-","-","-","217.0","Celsius","-","-","-","-","217.0","Celsius","-","-","","-",""
"N#CCCC[N+](C)(C)C.F[P-](F)(F)(F)(F)F","-","-","AUTO_676","C1417_A0011","A133072","-","-","-","-","-","347.0","Celsius","-","-","-","-","347.0","Celsius","-","-","","-",""
"N#CCCC[N+](C)(C)C.C(#N)[N-]C#N","-","-","AUTO_677","C1417_A0056","A133072","-","-","-","-","-","241.0","Celsius","-","-","-","-","241.0","Celsius","-","-","","-",""
"CCC[N+](CC)(C)C.FC(S(=O)(=O)[N-]S(=O)(=O)C(F)(F)F)(F)F","-","-","AUTO_678","C0231_A0048","A133072","-","-","-","-","-","402.0","Celsius","-","-","-","-","402.0","Celsius","-","-","","-",""
"OCC[N+](C)(C)C.[O-]C(=O)C1CCCCC1","-","-","AUTO_679","C0482_A0136","A133072","-","-","-","-","-","178.0","Celsius","-","-","-","-","178.0","Celsius","-","-","","-",""
"OCC[N+](C)(C)C.[O-]C(=O)C=1C2=CC=CC=C2C=C3C1C=CC=C3","-","-","AUTO_680","C0482_A0135","A133072","-","-","-","-","-","201.0","Celsius","-","-","-","-","201.0","Celsius","-","-","","-",""
"OCC[N+](C)(C)C.[O-]C(=O)C1CCCC1","-","-","AUTO_681","C0482_A0138","A133072","-","-","-","-","-","179.0","Celsius","-","-","-","-","179.0","Celsius","-","-","","-",""
"OCC[N+](C)(C)C.[O-]C(=O)CC1CCCC1","-","-","AUTO_682","C0482_A0137","A133072","-","-","-","-","-","181.0","Celsius","-","-","-","-","181.0","Celsius","-","-","","-",""
"OCC[N+](C)(C)C.[O-]C(=O)CCC1CCCCC1","-","-","AUTO_683","C0482_A0132","A133072","-","-","-","-","-","176.0","Celsius","-","-","-","-","176.0","Celsius","-","-","","-",""
"OCC[N+](C)(C)C.C(C1=CC=CC=C1)(=O)[O-]","-","-","AUTO_684","C0482_A0031","A133072","-","-","-","-","-","203.0","Celsius","-","-","-","-","203.0","Celsius","-","-","","-",""