"SMILES","CASRN","EXTERNALID","N","NAME","ARTICLEID","PUBMEDID","PAGE","TABLE","Melting Point","UNIT {Melting Point}","Decomposition","UNIT {Decomposition}","Glass-transition temperature (Tg)","UNIT {Glass-transition temperature (Tg)}","Melting Point {measured, converted}","UNIT {Melting Point}","Decomposition {measured, converted}","UNIT {Decomposition}","Glass-transition temperature (Tg) {measured, converted}","UNIT {Glass-transition temperature (Tg)}","weight loss","UNIT {weight loss}","Solvent"
"[NH3+][C@H](C(=O)O)C(C)C.[N+](=O)([O-])[O-]","-","-","AUTO_803","C0251_A0090","A132065","-","-","-","134.0","Celsius","-","-","-","-","134.0","Celsius","-","-","-","-","","-",""
"CC[C@@H]([C@@H](C(=O)O)[NH3+])C.[N+](=O)([O-])[O-]","-","-","AUTO_804","C0023_A0090","A132065","-","-","-","105.0","Celsius","-","-","-","-","105.0","Celsius","-","-","-","-","","-",""
"COC(=O)C[NH3+].[N+](=O)([O-])[O-]","-","-","AUTO_805","C0491_A0090","A132065","-","-","-","44.0","Celsius","-","-","-","-","44.0","Celsius","-","-","-","-","","-",""
"CCOC(=O)C[NH3+].[N+](=O)([O-])[O-]","-","-","AUTO_806","C0914_A0090","A132065","-","-","-","49.0","Celsius","-","-","-","-","49.0","Celsius","-","-","-","-","","-",""
"COC(=O)C([NH3+])C.F[B-](F)(F)F","-","-","AUTO_807","C0492_A0020","A132065","-","-","-","-18.0","Celsius","-","-","-","-","-18.0","Celsius","-","-","-","-","","-",""
"COC(=O)C([NH3+])C.C(F)(F)(F)S(=O)(=O)[N-]S(=O)(=O)C(F)(F)F","-","-","AUTO_808","C0492_A0048","A132065","-","-","-","-17.0","Celsius","-","-","-","-","-17.0","Celsius","-","-","-","-","","-",""
"COC(=O)C([NH3+])C.[N+](=O)([O-])[O-]","-","-","AUTO_809","C0492_A0090","A132065","-","-","-","61.0","Celsius","-","-","-","-","61.0","Celsius","-","-","-","-","","-",""
"COC(=O)C([NH3+])C.C([C@@H](O)C)(=O)[O-]","-","-","AUTO_810","C0492_A0081","A132065","-","-","-","38.0","Celsius","-","-","-","-","38.0","Celsius","-","-","-","-","","-",""
"COC(=O)C([NH3+])C.[S-]C#N","-","-","AUTO_811","C0492_A0015","A132065","-","-","-","62.0","Celsius","-","-","-","-","62.0","Celsius","-","-","-","-","","-",""
"COC(=O)C([NH3+])CO.[N+](=O)([O-])[O-]","-","-","AUTO_812","C0923_A0090","A132065","-","-","-","105.0","Celsius","-","-","-","-","105.0","Celsius","-","-","-","-","","-",""
"CC[NH2+]C(C(=O)OCC)C.[N+](=O)([O-])[O-]","-","-","AUTO_813","C0964_A0090","A132065","-","-","-","-17.0","Celsius","-","-","-","-","-17.0","Celsius","-","-","-","-","","-",""
"CC[NH2+]C(C(=O)OCC)C.C([C@@H](O)C)(=O)[O-]","-","-","AUTO_814","C0964_A0081","A132065","-","-","-","-25.0","Celsius","-","-","-","-","-25.0","Celsius","-","-","-","-","","-",""
"COC(=O)C1CCC[NH2+]1.[N+](=O)([O-])[O-]","-","-","AUTO_816","C1001_A0090","A132065","-","-","-","-16.0","Celsius","-","-","-","-","-16.0","Celsius","-","-","-","-","","-",""
"COC(=O)C(C(C)C)[NH3+].[N+](=O)([O-])[O-]","-","-","AUTO_817","C0416_A0090","A132065","-","-","-","74.0","Celsius","-","-","-","-","74.0","Celsius","-","-","-","-","","-",""
"CCOC(=O)C1CCC[NH2+]1.[N+](=O)([O-])[O-]","-","-","AUTO_818","C0031_A0090","A132065","-","-","-","-17.0","Celsius","-","-","-","-","-17.0","Celsius","-","-","-","-","","-",""
"CCC(C(C(=O)OC)[NH3+])C.[N+](=O)([O-])[O-]","-","-","AUTO_819","C0101_A0090","A132065","-","-","-","-14.0","Celsius","-","-","-","-","-14.0","Celsius","-","-","-","-","","-",""
"[NH3+][C@H](C(=O)O)CC(C)C.[N+](=O)([O-])[O-]","-","-","AUTO_820","C0508_A0090","A132065","-","-","-","75.0","Celsius","-","-","-","-","75.0","Celsius","-","-","-","-","","-",""
"COC(=O)C(CC1=CC=CC=C1)[NH3+].[N+](=O)([O-])[O-]","-","-","AUTO_821","C0654_A0090","A132065","-","-","-","92.0","Celsius","-","-","-","-","92.0","Celsius","-","-","-","-","","-",""
"CCCN1C=C(C[C@@H](NC(=O)C2=CC=CC=C2)C(=O)OC)[N+](CCC)=C1.[Br-]","-","-","AUTO_822","C0980_A0004","A132065","-","-","-","39.0","Celsius","-","-","-","-","39.0","Celsius","-","-","-","-","","-",""
"COC(=O)[C@@H](CC1=CN(C=[N+]1C(C)C)C(C)C)NC(=O)C2=CC=CC=C2.[I-]","-","-","AUTO_823","C0163_A0069","A132065","-","-","-","55.0","Celsius","-","-","-","-","55.0","Celsius","-","-","-","-","","-",""
"CC(C)N1C=C(C[C@@H](NC(=O)OC(C)(C)C)C(C)=O)[N+](=C1)C(C)C.[I-]","-","-","AUTO_824","C0001_A0069","A132065","-","-","-","55.0","Celsius","-","-","-","-","55.0","Celsius","-","-","-","-","","-",""
"CC1=CC(C)=C(C(=C1)C)N2C=C[N+](=C2)C.C(F)(F)(F)S(=O)(=O)[N-]S(=O)(=O)C(F)(F)F","-","-","AUTO_825","C1079_A0048","A132065","-","-","-","71.0","Celsius","-","-","-","-","71.0","Celsius","-","-","-","-","","-",""
"CCCC[N+]=1C=CN(C1)C2=C(C)C=C(C=C2C)C.C(F)(F)(F)S(=O)(=O)[N-]S(=O)(=O)C(F)(F)F","-","-","AUTO_827","C0086_A0048","A132065","-","-","-","26.0","Celsius","-","-","-","-","26.0","Celsius","-","-","-","-","","-",""
"CCCCCC[N+]=1C=CN(C1)C2=C(C)C=C(C=C2C)C.C(F)(F)(F)S(=O)(=O)[N-]S(=O)(=O)C(F)(F)F","-","-","AUTO_828","C0945_A0048","A132065","-","-","-","40.0","Celsius","-","-","-","-","40.0","Celsius","-","-","-","-","","-",""
"CCCCCCCCCCC[N+]=1C=CN(C1)C2=C(C)C=C(C=C2C)C.C(F)(F)(F)S(=O)(=O)[N-]S(=O)(=O)C(F)(F)F","-","-","AUTO_829","C0117_A0048","A132065","-","-","-","32.0","Celsius","-","-","-","-","32.0","Celsius","-","-","-","-","","-",""
"CCCC[N+]1(C)CCCC(C1)C.FC(S(=O)(=O)[O-])(F)F","-","-","AUTO_830","C0881_A0084","A132065","-","-","-","84.0","Celsius","-","-","-","-","84.0","Celsius","-","-","-","-","","-",""
"CCCCCC[N+]1(C)CCCC(C1)C.FC(S(=O)(=O)[O-])(F)F","-","-","AUTO_831","C0429_A0084","A132065","-","-","-","82.0","Celsius","-","-","-","-","82.0","Celsius","-","-","-","-","","-",""
"CCCC[N+]1(C)CCCC(C1)C.FC(C(=O)[O-])(F)F","-","-","AUTO_832","C0881_A0064","A132065","-","-","-","58.0","Celsius","-","-","-","-","58.0","Celsius","-","-","-","-","","-",""
"CCCCCC[N+]1(C)CCCC(C1)C.FC(C(=O)[O-])(F)F","-","-","AUTO_833","C0429_A0064","A132065","-","-","-","41.0","Celsius","-","-","-","-","41.0","Celsius","-","-","-","-","","-",""
"CCCC[N+]1(C)CCCC(C1)C.[I-]","-","-","AUTO_834","C0881_A0069","A132065","-","-","-","144.0","Celsius","-","-","-","-","144.0","Celsius","-","-","-","-","","-",""
"CCCCCC[N+]1(C)CCCC(C1)C.[I-]","-","-","AUTO_835","C0429_A0069","A132065","-","-","-","123.0","Celsius","-","-","-","-","123.0","Celsius","-","-","-","-","","-",""
"CCC[N+]1=CC=CC=C1.C(F)(F)(F)S(=O)(=O)[N-]S(=O)(=O)C(F)(F)F","-","-","AUTO_836","C0203_A0048","A132065","-","-","-","44.0","Celsius","-","-","-","-","44.0","Celsius","-","-","-","-","","-",""
"CCCCCC[N+]1=CC=CC=C1.C(F)(F)(F)S(=O)(=O)[N-]S(=O)(=O)C(F)(F)F","-","-","AUTO_837","C0710_A0048","A132065","-","-","-","3.0","Celsius","-","-","-","-","3.0","Celsius","-","-","-","-","","-",""
"CCCCC1=C[N+](=NN1C)C2=CC=CC=C2.S(=O)(=O)([O-])C1=CC=C(C)C=C1","-","-","AUTO_838","C1014_A0030","A132065","-","-","-","146.0","Celsius","-","-","-","-","146.0","Celsius","-","-","-","-","","-",""
"CCCCC1=C[N+](=NN1C)C2=CC=CC=C2.FC(S(=O)(=O)[O-])(F)F","-","-","AUTO_839","C1014_A0084","A132065","-","-","-","102.0","Celsius","-","-","-","-","102.0","Celsius","-","-","-","-","","-",""
"CCCCC1=C[N+](=NN1C)C.S(=O)(=O)([O-])C1=CC=C(C)C=C1","-","-","AUTO_840","C0905_A0030","A132065","-","-","-","106.0","Celsius","-","-","-","-","106.0","Celsius","-","-","-","-","","-",""
"CN1C=C[N+](=N1)C.S(=O)(=O)([O-])C1=CC=C(C)C=C1","-","-","AUTO_841","C0773_A0030","A132065","-","-","-","99.0","Celsius","-","-","-","-","99.0","Celsius","-","-","-","-","","-",""
"CN1C=C[N+](=C1)C.S(=O)(=O)([O-])C1=CC=C(C)C=C1","-","-","AUTO_842","C0958_A0030","A132065","-","-","-","95.0","Celsius","-","-","-","-","95.0","Celsius","-","-","-","-","","-",""
"CN1C=C[N+](=C1)C.FC(S(=O)(=O)[O-])(F)F","-","-","AUTO_843","C0958_A0084","A132065","-","-","-","37.0","Celsius","-","-","-","-","37.0","Celsius","-","-","-","-","","-",""
"CCCCCC[P+](CCCC)(CCCC)CCCC.F[P-](F)(F)(F)(F)F","-","-","AUTO_844","C0182_A0011","A132065","-","-","-","141.0","Celsius","-","-","-","-","141.0","Celsius","-","-","-","-","","-",""
"CCCCCC[N+](CCCC)(CCCC)CCCC.F[P-](F)(F)(F)(F)F","-","-","AUTO_845","C0319_A0011","A132065","-","-","-","167.0","Celsius","-","-","-","-","167.0","Celsius","-","-","-","-","","-",""
"CCCCCC[N+](CCCC)(CCCC)CCCC.C(F)(F)(F)S(=O)(=O)[N-]S(=O)(=O)C(F)(F)F","-","-","AUTO_846","C0319_A0048","A132065","-","-","-","24.0","Celsius","-","-","-","-","24.0","Celsius","-","-","-","-","","-",""
"C[N+]1(C)CCCC1.COS(=O)(=O)[O-]","-","-","AUTO_847","C0411_A0044","A132065","-","-","-","95.0","Celsius","-","-","-","-","95.0","Celsius","-","-","-","-","","-",""
"C[N+]1(C)CCCCC1.COS(=O)(=O)[O-]","-","-","AUTO_848","C0103_A0044","A132065","-","-","-","99.0","Celsius","-","-","-","-","99.0","Celsius","-","-","-","-","","-",""
"CC[N+]1(C)CCCCC1.C(C)OS(=O)(=O)[O-]","-","-","AUTO_849","C0871_A0083","A132065","-","-","-","-80.0","Celsius","-","-","-","-","-80.0","Celsius","-","-","-","-","","-",""
"C[N+]1(C)CCOCC1.COS(=O)(=O)[O-]","-","-","AUTO_850","C0963_A0044","A132065","-","-","-","113.0","Celsius","-","-","-","-","113.0","Celsius","-","-","-","-","","-",""
"CC[N+]1(C)CCOCC1.COS(=O)(=O)[O-]","-","-","AUTO_851","C0561_A0044","A132065","-","-","-","45.0","Celsius","-","-","-","-","45.0","Celsius","-","-","-","-","","-",""
"CC[N+]1(C)CCOCC1.C(C)OS(=O)(=O)[O-]","-","-","AUTO_852","C0561_A0083","A132065","-","-","-","-68.0","Celsius","-","-","-","-","-68.0","Celsius","-","-","-","-","","-",""
"COCC[N+](CCOC)(CC)CC.FS(=O)(=O)[N-]S(F)(=O)=O","-","-","AUTO_853","C1053_A0027","A132065","-","-","-","15.0","Celsius","-","-","-","-","15.0","Celsius","-","-","-","-","","-",""
"COCC[N+](CCOC)(CCOC)CCOC.FS(=O)(=O)[N-]S(F)(=O)=O","-","-","AUTO_854","C0533_A0027","A132065","-","-","-","21.0","Celsius","-","-","-","-","21.0","Celsius","-","-","-","-","","-",""
"COCC[N+](CCOC)(CC)CC.C(F)(F)(F)S(=O)(=O)[N-]S(=O)(=O)C(F)(F)F","-","-","AUTO_855","C1053_A0048","A132065","-","-","-","7.0","Celsius","-","-","-","-","7.0","Celsius","-","-","-","-","","-",""
"COCC[N+](CCOC)(CCOC)CCOC.C(F)(F)(F)S(=O)(=O)[N-]S(=O)(=O)C(F)(F)F","-","-","AUTO_856","C0533_A0048","A132065","-","-","-","26.0","Celsius","-","-","-","-","26.0","Celsius","-","-","-","-","","-",""
"CCOC(=O)C[N+](CCC)(CCC)CCC.C(F)(F)(F)S(=O)(=O)[N-]S(=O)(=O)C(F)(F)F","-","-","AUTO_857","C0863_A0048","A132065","-","-","-","68.0","Celsius","-","-","-","-","68.0","Celsius","-","-","-","-","","-",""
"CCCC[N+](CC(=O)OCC)(CCCC)CCCC.F[B-](F)(F)F","-","-","AUTO_858","C0790_A0020","A132065","-","-","-","54.0","Celsius","-","-","-","-","54.0","Celsius","-","-","-","-","","-",""
"COCC[N+](=C(N(C)C)N(C)C)CCOCC.C(F)(F)(F)S(=O)(=O)[N-]S(=O)(=O)C(F)(F)F","-","-","AUTO_859","C0664_A0048","A132065","-","-","-","8.0","Celsius","-","-","-","-","8.0","Celsius","-","-","-","-","","-",""
"CCCC[P+](CC)(CC)CC.FS(=O)(=O)[N-]S(F)(=O)=O","-","-","AUTO_860","C0519_A0027","A132065","-","-","-","-16.0","Celsius","-","-","-","-","-16.0","Celsius","-","-","-","-","","-",""
"CCCCC[P+](CC)(CC)CC.FS(=O)(=O)[N-]S(F)(=O)=O","-","-","AUTO_861","C0161_A0027","A132065","-","-","-","-35.0","Celsius","-","-","-","-","-35.0","Celsius","-","-","-","-","","-",""
"COC[P+](CC)(CC)CC.FS(=O)(=O)[N-]S(F)(=O)=O","-","-","AUTO_862","C1114_A0027","A132065","-","-","-","-14.0","Celsius","-","-","-","-","-14.0","Celsius","-","-","-","-","","-",""
"CCOC[P+](CC)(CC)CC.FS(=O)(=O)[N-]S(F)(=O)=O","-","-","AUTO_863","C0915_A0027","A132065","-","-","-","-18.0","Celsius","-","-","-","-","-18.0","Celsius","-","-","-","-","","-",""
"CCOC(=O)C[N+](CC=C)(C)C.C(F)(F)(F)S(=O)(=O)[N-]S(=O)(=O)C(F)(F)F","-","-","AUTO_864","C0237_A0048","A132065","-","-","-","26.0","Celsius","-","-","-","-","26.0","Celsius","-","-","-","-","","-",""
"CCCCC[N+](CC(=O)OCC)(C)C.C(F)(F)(F)S(=O)(=O)[N-]S(=O)(=O)C(F)(F)F","-","-","AUTO_865","C0121_A0048","A132065","-","-","-","-17.0","Celsius","-","-","-","-","-17.0","Celsius","-","-","-","-","","-",""
"C=CC[N+](CC(=O)OCC)(CC)CC.C(F)(F)(F)S(=O)(=O)[N-]S(=O)(=O)C(F)(F)F","-","-","AUTO_866","C0669_A0048","A132065","-","-","-","-28.0","Celsius","-","-","-","-","-28.0","Celsius","-","-","-","-","","-",""
"CCOC(=O)C[N+](C)(C)C.COS(=O)(=O)[O-]","-","-","AUTO_867","C0055_A0044","A132065","-","-","-","38.0","Celsius","-","-","-","-","38.0","Celsius","-","-","-","-","","-",""
"CCOC(=O)C[N+](CC)(C)C.C(C)OS(=O)(=O)[O-]","-","-","AUTO_868","C0149_A0083","A132065","-","-","-","21.0","Celsius","-","-","-","-","21.0","Celsius","-","-","-","-","","-",""
"CCOC(=O)C[N+](CC)(CC)C.COS(=O)(=O)[O-]","-","-","AUTO_869","C0865_A0044","A132065","-","-","-","-31.0","Celsius","-","-","-","-","-31.0","Celsius","-","-","-","-","","-",""
"CCOC(=O)C[N+](CC)(CC)CC.C(C)OS(=O)(=O)[O-]","-","-","AUTO_870","C1135_A0083","A132065","-","-","-","-30.0","Celsius","-","-","-","-","-30.0","Celsius","-","-","-","-","","-",""
"CCCC[N+](CC(=O)OCC)(CC)CC.C(CCC)OS(=O)(=O)[O-]","-","-","AUTO_871","C1013_A0050","A132065","-","-","-","-33.0","Celsius","-","-","-","-","-33.0","Celsius","-","-","-","-","","-",""
"CCC[P+](C)(C)C.FS(=O)(=O)[N-]S(F)(=O)=O","-","-","AUTO_872","C0493_A0027","A132065","-","-","-","0.0","Celsius","-","-","-","-","0.0","Celsius","-","-","-","-","","-",""
"CCC[P+](C)(C)C.C(F)(F)(F)S(=O)(=O)[N-]S(=O)(=O)C(F)(F)F","-","-","AUTO_873","C0493_A0048","A132065","-","-","-","40.0","Celsius","-","-","-","-","40.0","Celsius","-","-","-","-","","-",""
"COC[P+](C)(C)C.FS(=O)(=O)[N-]S(F)(=O)=O","-","-","AUTO_874","C0433_A0027","A132065","-","-","-","-6.0","Celsius","-","-","-","-","-6.0","Celsius","-","-","-","-","","-",""
"COC[P+](C)(C)C.C(F)(F)(F)S(=O)(=O)[N-]S(=O)(=O)C(F)(F)F","-","-","AUTO_875","C0433_A0048","A132065","-","-","-","13.0","Celsius","-","-","-","-","13.0","Celsius","-","-","-","-","","-",""
"C=CC[P+](C)(C)C.FS(=O)(=O)[N-]S(F)(=O)=O","-","-","AUTO_876","C0608_A0027","A132065","-","-","-","-5.0","Celsius","-","-","-","-","-5.0","Celsius","-","-","-","-","","-",""
"CCCCCC[N+]=1C=CN(C1)C.F[B-](F)(F)F","-","-","AUTO_878","C0190_A0020","A132065","-","-","-","-82.0","Celsius","-","-","-","-","-82.0","Celsius","-","-","-","-","","-",""
"CCCCCCCC[N+]=1C=CN(C1)C.F[B-](F)(F)F","-","-","AUTO_879","C0290_A0020","A132065","-","-","-","79.0","Celsius","-","-","-","-","79.0","Celsius","-","-","-","-","","-",""
"CCCC[N+]=1C=CN(C1)C.F[P-](F)(F)(F)(F)F","-","-","AUTO_880","C0505_A0011","A132065","-","-","-","10.0","Celsius","-","-","-","-","10.0","Celsius","-","-","-","-","","-",""
"CCCCCC[N+]=1C=CN(C1)C.F[P-](F)(F)(F)(F)F","-","-","AUTO_881","C0190_A0011","A132065","-","-","-","-61.0","Celsius","-","-","-","-","-61.0","Celsius","-","-","-","-","","-",""
"CCCC[N+]=1C=CN(C1)C.[Cl-]","-","-","AUTO_882","C0505_A0033","A132065","-","-","-","65.0","Celsius","-","-","-","-","65.0","Celsius","-","-","-","-","","-",""
"CN1C=C[N+](=C1)C.COS(=O)(=O)[O-]","-","-","AUTO_883","C0958_A0044","A132065","-","-","-","35.0","Celsius","-","-","-","-","35.0","Celsius","-","-","-","-","","-",""
"O=C(C1=CC=CC=C1)C[N+]=2C=CN(C2C(=C)C)C.[Br-]","-","-","AUTO_884","C0377_A0004","A132065","-","-","-","182.0","Celsius","-","-","-","-","182.0","Celsius","-","-","-","-","","-",""
"O=C(C1=CC=CC=C1)C[N+]=2C=CN(C2C(=C)C(C)(C)C)C.[Br-]","-","-","AUTO_885","C0755_A0004","A132065","-","-","-","200.0","Celsius","-","-","-","-","200.0","Celsius","-","-","-","-","","-",""
"O=C(C1=CC=CC=C1)C[N+]=2C=CN(C2C(=C)C3=CC=CC=C3)C.[Br-]","-","-","AUTO_886","C1101_A0004","A132065","-","-","-","185.0","Celsius","-","-","-","-","185.0","Celsius","-","-","-","-","","-",""
"CCCN1C=C[N+](=C1CC(C)C)CCC.[Br-]","-","-","AUTO_887","C0685_A0004","A132065","-","-","-","163.0","Celsius","-","-","-","-","163.0","Celsius","-","-","-","-","","-",""
"CCCCCCCCCC[N+]=1C=CN(C1C)CC=C.[Br-]","-","-","AUTO_888","C0766_A0004","A132065","-","-","-","71.0","Celsius","-","-","-","-","71.0","Celsius","-","-","-","-","","-",""
"CCCCCCCCCC=1N(C)C=C[N+]1CC=C.[Br-]","-","-","AUTO_889","C0486_A0004","A132065","-","-","-","98.0","Celsius","-","-","-","-","98.0","Celsius","-","-","-","-","","-",""
"CCCCCCCC=1N(C)C=C[N+]1CC2=CC=CC=C2.[Br-]","-","-","AUTO_890","C0633_A0004","A132065","-","-","-","187.0","Celsius","-","-","-","-","187.0","Celsius","-","-","-","-","","-",""
"CCN1C=[N+](C(=C1C2=CC=CC=C2)C3=CC=CC=C3)CC.[Br-]","-","-","AUTO_891","C0803_A0004","A132065","-","-","-","154.0","Celsius","-","-","-","-","154.0","Celsius","-","-","-","-","","-",""
"CCCCCCCCCC=1N(C)C=C[N+]1CC2=CC=CC=C2.[Br-]","-","-","AUTO_892","C0713_A0004","A132065","-","-","-","194.0","Celsius","-","-","-","-","194.0","Celsius","-","-","-","-","","-",""
"CCCCCCCCCCCC1=[N+](C)C=CN1CC2=CC=CC=C2.[Br-]","-","-","AUTO_893","C0576_A0004","A132065","-","-","-","187.0","Celsius","-","-","-","-","187.0","Celsius","-","-","-","-","","-",""
"CCCCCCCCCCCC=1N(C=C[N+]1CCCCC)CC2=CC=CC=C2.[Br-]","-","-","AUTO_894","C0875_A0004","A132065","-","-","-","117.0","Celsius","-","-","-","-","117.0","Celsius","-","-","-","-","","-",""
"C1=CC=C(C=C1)CN2C=[N+](C(=C2C3=CC=CC=C3)C4=CC=CC=C4)CC5=CC=CC=C5.[Br-]","-","-","AUTO_895","C0998_A0004","A132065","-","-","-","212.0","Celsius","-","-","-","-","212.0","Celsius","-","-","-","-","","-",""
"N#CSC=1N(C)C=C[N+]1C.[Br-]","-","-","AUTO_896","C0075_A0004","A132065","-","-","-","221.0","Celsius","-","-","-","-","221.0","Celsius","-","-","-","-","","-",""
"BrC1=[N+](C)C(=C(N1C)Br)Br.[Br-]","-","-","AUTO_897","C0523_A0004","A132065","-","-","-","268.0","Celsius","-","-","-","-","268.0","Celsius","-","-","-","-","","-",""
"NC1=CN(C(=[N+]1C)C2=CC=CC=C2)C3=CC=CC=C3.[Br-]","-","-","AUTO_898","C1078_A0004","A132065","-","-","-","283.0","Celsius","-","-","-","-","283.0","Celsius","-","-","-","-","","-",""
"ClC1=CC=C(C=C1)C(=O)C[N+]=2C=CN(C2C)C.[Br-]","-","-","AUTO_899","C0323_A0004","A132065","-","-","-","201.0","Celsius","-","-","-","-","201.0","Celsius","-","-","-","-","","-",""
"CC1=CC=C(C=C1)C(=O)C[N+]=2C=CN(C2C)C3=CC=CC=C3.[Br-]","-","-","AUTO_900","C0498_A0004","A132065","-","-","-","206.0","Celsius","-","-","-","-","206.0","Celsius","-","-","-","-","","-",""
"NC1=CN(C(=[N+]1C2=CC=CC=C2)C3=CC=CC=C3)C4=CC=CC=C4.[Br-]","-","-","AUTO_901","C0702_A0004","A132065","-","-","-","283.0","Celsius","-","-","-","-","283.0","Celsius","-","-","-","-","","-",""
"CC(=O)NC1=CN(C(=[N+]1C)C2=CC=CC=C2)C3=CC=CC=C3.[Br-]","-","-","AUTO_902","C0842_A0004","A132065","-","-","-","272.0","Celsius","-","-","-","-","272.0","Celsius","-","-","-","-","","-",""
"OCCC=1[N+](CC2=CC=CC=C2)=CN(C1C)CC3=CC=CC=C3.[Br-]","-","-","AUTO_903","C0487_A0004","A132065","-","-","-","135.0","Celsius","-","-","-","-","135.0","Celsius","-","-","-","-","","-",""
"CC1=CC=C(C=C1)[N+]=2C(N)=CN(C2C3=CC=CC=C3)C4=CC=CC=C4.[Br-]","-","-","AUTO_904","C1158_A0004","A132065","-","-","-","268.0","Celsius","-","-","-","-","268.0","Celsius","-","-","-","-","","-",""
"ClC1=CC=C(C=C1)C(=O)C[N+]=2C=CN(C2C)CC3=CC=CC=C3.[Br-]","-","-","AUTO_905","C0544_A0004","A132065","-","-","-","229.0","Celsius","-","-","-","-","229.0","Celsius","-","-","-","-","","-",""
"COC1=CC=C(C=C1)C(=O)C[N+]=2C=CN(C2C)CC3=CC=CC=C3.[Br-]","-","-","AUTO_906","C0439_A0004","A132065","-","-","-","202.0","Celsius","-","-","-","-","202.0","Celsius","-","-","-","-","","-",""
"COC1=CC=C(C=C1)CN2C=C[N+](=C2C)CC(=O)C3=CC=C(C=C3)C.[Br-]","-","-","AUTO_907","C0317_A0004","A132065","-","-","-","225.0","Celsius","-","-","-","-","225.0","Celsius","-","-","-","-","","-",""
"C=CN1C=C[N+](=C1)CC.[Br-]","-","-","AUTO_908","C0639_A0004","A132065","-","-","-","100.0","Celsius","-","-","-","-","100.0","Celsius","-","-","-","-","","-",""
"CCC[N+]=1C=CN(C1)C=C.[Br-]","-","-","AUTO_909","C0122_A0004","A132065","-","-","-","155.0","Celsius","-","-","-","-","155.0","Celsius","-","-","-","-","","-",""
"CCCCN1C=C[N+](=C1)C=C.[Br-]","-","-","AUTO_910","C0500_A0004","A132065","-","-","-","83.0","Celsius","-","-","-","-","83.0","Celsius","-","-","-","-","","-",""
"CN1C=C[N+](=C1C2=CC=CC=C2)C.[Br-]","-","-","AUTO_911","C0461_A0004","A132065","-","-","-","284.0","Celsius","-","-","-","-","284.0","Celsius","-","-","-","-","","-",""
"C[N+]=1C=CN(C1)C(=O)C2=CC=CC=C2.[Br-]","-","-","AUTO_912","C0795_A0004","A132065","-","-","-","89.0","Celsius","-","-","-","-","89.0","Celsius","-","-","-","-","","-",""
"ClC1=CC=C(C=C1)C(=O)C[N+]=2C=CN(C2)O.[Br-]","-","-","AUTO_913","C1127_A0004","A132065","-","-","-","202.0","Celsius","-","-","-","-","202.0","Celsius","-","-","-","-","","-",""