"SMILES","CASRN","EXTERNALID","N","NAME","ARTICLEID","PUBMEDID","PAGE","TABLE","Melting Point","UNIT {Melting Point}","Decomposition","UNIT {Decomposition}","Glass-transition temperature (Tg)","UNIT {Glass-transition temperature (Tg)}","Melting Point {measured, converted}","UNIT {Melting Point}","Decomposition {measured, converted}","UNIT {Decomposition}","Glass-transition temperature (Tg) {measured, converted}","UNIT {Glass-transition temperature (Tg)}","weight loss","UNIT {weight loss}","Solvent"
"C[N+](C1=CC=CC=C1)(C)C.O=C1[N-]S(=O)(=O)C2=CC=CC=C12","-","-","AUTO_695","C1056_A0007","A132065","-","-","-","194.0","Celsius","-","-","-","-","194.0","Celsius","-","-","-","-","","-",""
"C[N+](C1=CC=CC=C1)(C)C.[S-]C#N","-","-","AUTO_696","C1056_A0015","A132065","-","-","-","116.0","Celsius","-","-","-","-","116.0","Celsius","-","-","-","-","","-",""
"CCCCCCCCCCCC[N+](CC)(CC)CC.C(F)(F)(F)S(=O)(=O)[N-]S(=O)(=O)C(F)(F)F","-","-","AUTO_697","C1115_A0048","A132065","-","-","-","7.0","Celsius","-","-","-","-","7.0","Celsius","-","-","-","-","","-",""
"COC[N+](CC)(CC)CC.C(F)(F)(F)S(=O)(=O)[N-]S(=O)(=O)C(F)(F)F","-","-","AUTO_698","C0716_A0048","A132065","-","-","-","-3.0","Celsius","-","-","-","-","-3.0","Celsius","-","-","-","-","","-",""
"C[N+](CC1=CC=CC=C1)(CC2=CC=CC=C2)C.[Br-]","-","-","AUTO_699","C0542_A0004","A132065","-","-","-","175.0","Celsius","-","-","-","-","175.0","Celsius","-","-","-","-","","-",""
"C[N+](CC1=CC=CC=C1)(CC2=CC=CC=C2)C.F[B-](F)(F)F","-","-","AUTO_700","C0542_A0020","A132065","-","-","-","166.0","Celsius","-","-","-","-","166.0","Celsius","-","-","-","-","","-",""
"C[N+](CC1=CC=CC=C1)(CC2=CC=CC=C2)C.F[P-](F)(F)(F)(F)F","-","-","AUTO_701","C0542_A0011","A132065","-","-","-","218.0","Celsius","-","-","-","-","218.0","Celsius","-","-","-","-","","-",""
"CC1=CC=CC=C1C[N+](CC2=CC=CC=C2C)(C)C.F[B-](F)(F)F","-","-","AUTO_702","C0205_A0020","A132065","-","-","-","231.0","Celsius","-","-","-","-","231.0","Celsius","-","-","-","-","","-",""
"CC1=CC=CC=C1C[N+](CC2=CC=CC=C2C)(C)C.F[P-](F)(F)(F)(F)F","-","-","AUTO_703","C0205_A0011","A132065","-","-","","270.0","Celsius","-","-","-","-","270.0","Celsius","-","-","-","-","","-",""
"CC1=CC=CC(=C1)C[N+](CC2=CC=CC(=C2)C)(C)C.[Cl-]","-","-","AUTO_704","C0035_A0033","A132065","-","-","-","149.0","Celsius","-","-","-","-","149.0","Celsius","-","-","-","-","","-",""
"CC1=CC=CC(=C1)C[N+](CC2=CC=CC(=C2)C)(C)C.F[B-](F)(F)F","-","-","AUTO_705","C0035_A0020","A132065","-","-","-","163.0","Celsius","-","-","-","-","163.0","Celsius","-","-","-","-","","-",""
"CC1=CC=CC(=C1)C[N+](CC2=CC=CC(=C2)C)(C)C.F[P-](F)(F)(F)(F)F","-","-","AUTO_706","C0035_A0011","A132065","-","-","-","161.0","Celsius","-","-","-","-","161.0","Celsius","-","-","-","-","","-",""
"CC1=CC=C(C=C1)C[N+](CC2=CC=C(C=C2)C)(C)C.[Br-]","-","-","AUTO_707","C1058_A0004","A132065","-","-","-","202.0","Celsius","-","-","-","-","202.0","Celsius","-","-","-","-","","-",""
"CC1=CC=C(C=C1)C[N+](CC2=CC=C(C=C2)C)(C)C.F[B-](F)(F)F","-","-","AUTO_708","C1058_A0020","A132065","-","-","-","206.0","Celsius","-","-","-","-","206.0","Celsius","-","-","-","-","","-",""
"CC1=CC=C(C=C1)C[N+](CC2=CC=C(C=C2)C)(C)C.F[P-](F)(F)(F)(F)F","-","-","AUTO_709","C1058_A0011","A132065","-","-","-","218.0","Celsius","-","-","-","-","218.0","Celsius","-","-","-","-","","-",""
"CCCC[N+](CCCC)(C)C.F[P-](F)(F)(F)(F)F","-","-","AUTO_710","C0313_A0011","A132065","-","-","-","164.0","Celsius","-","-","-","-","164.0","Celsius","-","-","-","-","","-",""
"CCCC[N+](=C(N(C)C)N(C)C)C.[N+](=O)([O-])[O-]","-","-","AUTO_711","C0268_A0090","A132065","-","-","-","72.0","Celsius","-","-","-","-","72.0","Celsius","-","-","-","-","","-",""
"CCCC[N+](=C(N(C)C)N(C)C)C.O=N(=O)[N-]N(=O)=O","-","-","AUTO_712","C0268_A0063","A132065","-","-","-","75.0","Celsius","-","-","-","-","75.0","Celsius","-","-","-","-","","-",""
"C[N+](=C1N(C)C=NN1C)C.[N+](=O)([O-])[O-]","-","-","AUTO_713","C0641_A0090","A132065","-","-","-","74.0","Celsius","-","-","-","-","74.0","Celsius","-","-","-","-","","-",""
"C[NH+]=C1N(C)CCN1C.[N+](=O)([O-])[O-]","-","-","AUTO_714","C0304_A0090","A132065","-","-","-","3.0","Celsius","-","-","-","-","3.0","Celsius","-","-","-","-","","-",""
"CCC[NH+]=C1N(C)CCN1C.[O-]Cl(=O)(=O)=O","-","-","AUTO_715","C1152_A0051","A132065","-","-","-","6.0","Celsius","-","-","-","-","6.0","Celsius","-","-","-","-","","-",""
"CCC[N+](=C1N(C)CCN1C)C.[O-]Cl(=O)(=O)=O","-","-","AUTO_716","C0046_A0051","A132065","-","-","-","39.0","Celsius","-","-","-","-","39.0","Celsius","-","-","-","-","","-",""
"CCC[N+](=C1N(C)CCN1C)C.[N+](=O)([O-])[O-]","-","-","AUTO_717","C0046_A0090","A132065","-","-","-","31.0","Celsius","-","-","-","-","31.0","Celsius","-","-","-","-","","-",""
"CCCC[N+](=C1N(C)CCN1C)C.[O-]Cl(=O)(=O)=O","-","-","AUTO_718","C0164_A0051","A132065","-","-","-","28.0","Celsius","-","-","-","-","28.0","Celsius","-","-","-","-","","-",""
"CCCC[N+](=C1N(C)CCN1C)C.[N+](=O)([O-])[O-]","-","-","AUTO_719","C0164_A0090","A132065","-","-","-","7.0","Celsius","-","-","-","-","7.0","Celsius","-","-","-","-","","-",""
"CCCC[N+](=C1N(C)CCN1C)C.F[P-](F)(F)(F)(F)F","-","-","AUTO_720","C0164_A0011","A132065","-","-","-","-15.0","Celsius","-","-","-","-","-15.0","Celsius","-","-","-","-","","-",""
"CCC[N+](=C1N(C)CCCN1C)C.[O-]Cl(=O)(=O)=O","-","-","AUTO_721","C1029_A0051","A132065","-","-","-","128.0","Celsius","-","-","-","-","128.0","Celsius","-","-","-","-","","-",""
"CCC[N+](=C1N(C)CCCN1C)C.[N+](=O)([O-])[O-]","-","-","AUTO_722","C1029_A0090","A132065","-","-","-","57.0","Celsius","-","-","-","-","57.0","Celsius","-","-","-","-","","-",""
"CCCC[N+](=C1N(C)CCCN1C)C.[O-]Cl(=O)(=O)=O","-","-","AUTO_723","C0568_A0051","A132065","-","-","-","78.0","Celsius","-","-","-","-","78.0","Celsius","-","-","-","-","","-",""
"CCCC[N+](=C1N(C)CCCN1C)C.[N+](=O)([O-])[O-]","-","-","AUTO_724","C0568_A0090","A132065","-","-","-","6.0","Celsius","-","-","-","-","6.0","Celsius","-","-","-","-","","-",""
"CCC[N+](=C1N(C)COCN1C)C.[O-]Cl(=O)(=O)=O","-","-","AUTO_725","C1019_A0051","A132065","-","-","-","94.0","Celsius","-","-","-","-","94.0","Celsius","-","-","-","-","","-",""
"CCC[N+](=C1N(C)COCN1C)C.[N+](=O)([O-])[O-]","-","-","AUTO_726","C1019_A0090","A132065","-","-","-","65.0","Celsius","-","-","-","-","65.0","Celsius","-","-","-","-","","-",""
"CCCCCCOC=1C=C2C(=CC1OCCCCC[NH+]=C(N(C)C)N(C)C)C3=CC(OCCCCCC)=C(C=C3C=4C2=CC(OCCCCCC)=C(C4)OCCCCCC)OCCCCCC.[Cl-]","-","-","AUTO_727","C0409_A0033","A132065","-","-","-","46.0","Celsius","-","-","-","-","46.0","Celsius","-","-","-","-","","-",""
"C[P+](C)(C)C.C(F)(F)(F)S(=O)(=O)[N-]S(=O)(=O)C(F)(F)F","-","-","AUTO_728","C0926_A0048","A132065","-","-","-","150.0","Celsius","-","-","-","-","150.0","Celsius","-","-","-","-","","-",""
"CC[P+](CC)(CC)CC.C(F)(F)(F)S(=O)(=O)[N-]S(=O)(=O)C(F)(F)F","-","-","AUTO_729","C0872_A0048","A132065","-","-","-","118.0","Celsius","-","-","-","-","118.0","Celsius","-","-","-","-","","-",""
"CC[P+](CC)(CC)CC.FC(F)(F)C(=O)[N-]S(=O)(=O)C(F)(F)F","-","-","AUTO_730","C0872_A0034","A132065","-","-","-","19.0","Celsius","-","-","-","-","19.0","Celsius","-","-","-","-","","-",""
"CCCCCCCCCCCCC[PH2+]C.[Cl-]","-","-","AUTO_731","C0057_A0033","A132065","-","-","-","101.0","Celsius","-","-","-","-","101.0","Celsius","-","-","-","-","","-",""
"CCCCCCCCCCCCC[PH2+]C.[Br-]","-","-","AUTO_732","C0057_A0004","A132065","-","-","-","95.0","Celsius","-","-","-","-","95.0","Celsius","-","-","-","-","","-",""
"CCCCCCCCCCCCC[PH2+]C.[N+](=O)([O-])[O-]","-","-","AUTO_733","C0057_A0090","A132065","-","-","-","60.0","Celsius","-","-","-","-","60.0","Celsius","-","-","-","-","","-",""
"CCCCCCCCCCCCCC[P+](CCCCCC)(CCCCCC)CCCCCC.F[B-](F)(F)F","-","-","AUTO_734","C1119_A0020","A132065","-","-","-","39.0","Celsius","-","-","-","-","39.0","Celsius","-","-","-","-","","-",""
"CCCCCCCCCCCCCC[P+](CCCCCC)(CCCCCC)CCCCCC.F[P-](F)(F)(F)(F)F","-","-","AUTO_735","C1119_A0011","A132065","-","-","-","40.0","Celsius","-","-","-","-","40.0","Celsius","-","-","-","-","","-",""
"CCCCCC[P+](CCCCCC)(CCCCCC)CC.[Br-]","-","-","AUTO_736","C0189_A0004","A132065","-","-","-","60.0","Celsius","-","-","-","-","60.0","Celsius","-","-","-","-","","-",""
"CCCCCC[P+](CCCCCC)(CCCCCC)CCCCCC.[Br-]","-","-","AUTO_737","C0455_A0004","A132065","-","-","-","70.0","Celsius","-","-","-","-","70.0","Celsius","-","-","-","-","","-",""
"CCCC[P+](C1=CC=CC=C1)(C2=CC=CC=C2)C3=CC=CC=C3.C(C1=CC=CC=C1)(=O)[O-]","-","-","AUTO_738","C0990_A0031","A132065","-","-","-","19.0","Celsius","-","-","-","-","19.0","Celsius","-","-","-","-","","-",""
"CCCCCC[P+](C)(C)C.C(F)(F)(F)S(=O)(=O)[N-]S(=O)(=O)C(F)(F)F","-","-","AUTO_739","C0010_A0048","A132065","-","-","-","21.0","Celsius","-","-","-","-","21.0","Celsius","-","-","-","-","","-",""
"CCCCCC[P+](C)(C)C.FC(F)(F)C(=O)[N-]S(=O)(=O)C(F)(F)F","-","-","AUTO_740","C0010_A0034","A132065","-","-","-","7.0","Celsius","-","-","-","-","7.0","Celsius","-","-","-","-","","-",""
"CCCCCC[P+](C)(C)C.FC(F)(F)C(F)(F)S(=O)(=O)[N-]S(=O)(=O)C(F)(F)F","-","-","AUTO_741","C0010_A0074","A132065","-","-","-","40.0","Celsius","-","-","-","-","40.0","Celsius","-","-","-","-","","-",""
"ClS(=O)(=O)CCCC[P+](C1=CC=CC=C1)(C2=CC=CC=C2)C3=CC=CC=C3.FC(S(=O)(=O)[O-])(F)F","-","-","AUTO_742","C0730_A0084","A132065","-","-","-","91.0","Celsius","-","-","-","-","91.0","Celsius","-","-","-","-","","-",""
"CC[P+](CC)(CC)C.C(F)(F)(F)S(=O)(=O)[N-]S(=O)(=O)C(F)(F)F","-","-","AUTO_743","C0738_A0048","A132065","-","-","-","97.0","Celsius","-","-","-","-","97.0","Celsius","-","-","-","-","","-",""
"CCCC[P+](CC)(CC)CC.C(F)(F)(F)S(=O)(=O)[N-]S(=O)(=O)C(F)(F)F","-","-","AUTO_744","C0519_A0048","A132065","-","-","-","55.0","Celsius","-","-","-","-","55.0","Celsius","-","-","-","-","","-",""
"CCCCC[P+](CC)(CC)CC.C(F)(F)(F)S(=O)(=O)[N-]S(=O)(=O)C(F)(F)F","-","-","AUTO_745","C0161_A0048","A132065","-","-","-","17.0","Celsius","-","-","-","-","17.0","Celsius","-","-","-","-","","-",""
"CCCCCCCCCCCC[P+](CC)(CC)CC.C(F)(F)(F)S(=O)(=O)[N-]S(=O)(=O)C(F)(F)F","-","-","AUTO_746","C1136_A0048","A132065","-","-","-","13.0","Celsius","-","-","-","-","13.0","Celsius","-","-","-","-","","-",""
"COC[P+](CC)(CC)CC.C(F)(F)(F)S(=O)(=O)[N-]S(=O)(=O)C(F)(F)F","-","-","AUTO_747","C1114_A0048","A132065","-","-","-","14.0","Celsius","-","-","-","-","14.0","Celsius","-","-","-","-","","-",""
"COCC[P+](CC)(CC)CC.C(F)(F)(F)S(=O)(=O)[N-]S(=O)(=O)C(F)(F)F","-","-","AUTO_748","C0678_A0048","A132065","-","-","-","10.0","Celsius","-","-","-","-","10.0","Celsius","-","-","-","-","","-",""
"CCCCCCCCCCCCCCCC[P+](CCCC)(CCCC)CCCC.[Br-]","-","-","AUTO_749","C0638_A0004","A132065","-","-","-","59.0","Celsius","-","-","-","-","59.0","Celsius","-","-","-","-","","-",""
"CCOC(=[N+](C)C)N(C)C.C(C(F)(F)[P-](C(C(F)(F)F)(F)F)(C(C(F)(F)F)(F)F)(F)(F)F)(F)(F)F","-","-","AUTO_750","C0722_A0071","A132065","-","-","-","33.0","Celsius","-","-","-","-","33.0","Celsius","-","-","-","-","","-",""
"CCSC(=[N+](C)C)N(C)C.C(C(F)(F)[P-](C(C(F)(F)F)(F)F)(C(C(F)(F)F)(F)F)(F)(F)F)(F)(F)F","-","-","AUTO_751","C0870_A0071","A132065","-","-","-","1.0","Celsius","-","-","-","-","1.0","Celsius","-","-","-","-","","-",""
"OCC[N+]1(C)CCOCC1.[Br-]","-","-","AUTO_752","C1044_A0004","A132065","-","-","-","150.0","Celsius","-","-","-","-","150.0","Celsius","-","-","-","-","","-",""
"OCC[N+]1(C)CCOCC1.C(F)(F)(F)S(=O)(=O)[N-]S(=O)(=O)C(F)(F)F","-","-","AUTO_753","C1044_A0048","A132065","-","-","-","-42.0","Celsius","-","-","-","-","-42.0","Celsius","-","-","-","-","","-",""
"CCC[N+]1(C)CCOCC1.[O-]Cl(=O)(=O)=O","-","-","AUTO_754","C0318_A0051","A132065","-","-","-","91.0","Celsius","-","-","-","-","91.0","Celsius","-","-","-","-","","-",""
"CCC[N+]1(C)CCOCC1.[N+](=O)([O-])[O-]","-","-","AUTO_755","C0318_A0090","A132065","-","-","-","58.0","Celsius","-","-","-","-","58.0","Celsius","-","-","-","-","","-",""
"CCC[N+]1(C)CCOCC1.F[P-](F)(F)(F)(F)F","-","-","AUTO_756","C0318_A0011","A132065","-","-","-","86.0","Celsius","-","-","-","-","86.0","Celsius","-","-","-","-","","-",""
"FCCC[N+]1(C)CCOCC1.[N+](=O)([O-])[O-]","-","-","AUTO_757","C0700_A0090","A132065","-","-","-","58.0","Celsius","-","-","-","-","58.0","Celsius","-","-","-","-","","-",""
"FCCC[N+]1(C)CCOCC1.FC(S(=O)(=O)[O-])(F)F","-","-","AUTO_758","C0700_A0084","A132065","-","-","-","68.0","Celsius","-","-","-","-","68.0","Celsius","-","-","-","-","","-",""
"FCCC[N+]1(C)CCOCC1.F[P-](F)(F)(F)(F)F","-","-","AUTO_759","C0700_A0011","A132065","-","-","-","80.0","Celsius","-","-","-","-","80.0","Celsius","-","-","-","-","","-",""
"FC(COCC[N+]1(C)CCOCC1)(F)F.F[P-](F)(F)(F)(F)F","-","-","AUTO_760","C0793_A0011","A132065","-","-","-","72.0","Celsius","-","-","-","-","72.0","Celsius","-","-","-","-","","-",""
"FC(C([N+]1(C)CCOCC1)OCCC(C(C(F)F)(F)F)(F)F)F.F[P-](F)(F)(F)(F)F","-","-","AUTO_761","C0056_A0011","A132065","-","-","-","62.0","Celsius","-","-","-","-","62.0","Celsius","-","-","-","-","","-",""
"C1COCC[NH2+]1.FC(F)(F)C(=O)[CH-]C(=O)C(F)(F)F","-","-","AUTO_762","C0440_A0010","A132065","-","-","-","62.0","Celsius","-","-","-","-","62.0","Celsius","-","-","-","-","","-",""
"C1COCC[NH2+]1.CC(C)(C)C(=O)[CH-]C(=O)C(F)(F)C(F)(F)C(F)(F)F","-","-","AUTO_763","C0440_A0037","A132065","-","-","-","86.0","Celsius","-","-","-","-","86.0","Celsius","-","-","-","-","","-",""
"C1COCC[NH2+]1.FC(F)(F)C(=O)[CH-]C(=O)C1=CC=CO1","-","-","AUTO_764","C0440_A0036","A132065","-","-","-","72.0","Celsius","-","-","-","-","72.0","Celsius","-","-","-","-","","-",""
"C1COCC[NH2+]1.FC(F)(F)C(=O)[CH-]C(=O)C1=CC=CS1","-","-","AUTO_765","C0440_A0005","A132065","-","-","-","102.0","Celsius","-","-","-","-","102.0","Celsius","-","-","-","-","","-",""
"CC[N+]1(C)CCOCC1.C(F)(F)(F)S(=O)(=O)[N-]S(=O)(=O)C(F)(F)F","-","-","AUTO_766","C0561_A0048","A132065","-","-","-","29.0","Celsius","-","-","-","-","29.0","Celsius","-","-","-","-","","-",""
"CCCC[N+]1(C)CCOCC1.F[B-](F)(F)F","-","-","AUTO_767","C0750_A0020","A132065","-","-","-","66.0","Celsius","-","-","-","-","66.0","Celsius","-","-","-","-","","-",""
"CCCC[N+]1(C)CCOCC1.C(F)(F)(F)S(=O)(=O)[N-]S(=O)(=O)C(F)(F)F","-","-","AUTO_768","C0750_A0048","A132065","-","-","-","35.0","Celsius","-","-","-","-","35.0","Celsius","-","-","-","-","","-",""
"CCCC[N+]1(C)CCOCC1.FC(C(F)(F)[B-](F)(F)F)(C(F)(F)F)F","-","-","AUTO_769","C0750_A0009","A132065","-","-","-","69.0","Celsius","-","-","-","-","69.0","Celsius","-","-","-","-","","-",""
"CCCC[N+]1(C)CCOCC1.FC(C(C(F)(F)[B-](F)(F)F)(F)F)(C(F)(F)F)F","-","-","AUTO_770","C0750_A0021","A132065","-","-","-","76.0","Celsius","-","-","-","-","76.0","Celsius","-","-","-","-","","-",""
"COCC[N+]1(C)CCOCC1.F[B-](F)(F)F","-","-","AUTO_771","C1051_A0020","A132065","-","-","-","85.0","Celsius","-","-","-","-","85.0","Celsius","-","-","-","-","","-",""
"COCC[N+]1(C)CCOCC1.FC(F)(F)[B-](F)(F)F","-","-","AUTO_773","C1051_A0008","A132065","-","-","-","1.0","Celsius","-","-","-","-","1.0","Celsius","-","-","-","-","","-",""
"COCC[N+]1(C)CCOCC1.FC(C(C(F)(F)[B-](F)(F)F)(F)F)(C(F)(F)F)F","-","-","AUTO_774","C1051_A0021","A132065","-","-","-","126.0","Celsius","-","-","-","-","126.0","Celsius","-","-","-","-","","-",""
"CN1C(=[N+](N=N1)N)N.O=N(=O)[N-]N(=O)=O","-","-","AUTO_775","C0961_A0063","A132065","-","-","-","85.0","Celsius","-","-","-","-","85.0","Celsius","-","-","-","-","","-",""
"CN1[NH+]=C(N(N1)C)C.[O-]Cl(=O)(=O)=O","-","-","AUTO_776","C0420_A0051","A132065","-","-","-","133.0","Celsius","-","-","-","-","133.0","Celsius","-","-","-","-","","-",""
"CN1N=N[N+](=C1C)N.[I-]","-","-","AUTO_777","C0746_A0069","A132065","-","-","-","121.0","Celsius","-","-","-","-","121.0","Celsius","-","-","-","-","","-",""
"CN1N=N[N+](=C1C)N.[O-]Cl(=O)(=O)=O","-","-","AUTO_778","C0746_A0051","A132065","-","-","-","51.0","Celsius","-","-","-","-","51.0","Celsius","-","-","-","-","","-",""
"CN1NN([NH+]=C1C)N.[I-]","-","-","AUTO_779","C0371_A0069","A132065","-","-","-","124.0","Celsius","-","-","-","-","124.0","Celsius","-","-","-","-","","-",""
"CN1NN([NH+]=C1C)N.[O-]Cl(=O)(=O)=O","-","-","AUTO_780","C0371_A0051","A132065","-","-","-","140.0","Celsius","-","-","-","-","140.0","Celsius","-","-","-","-","","-",""
"CN1NN([NH+]=C1C)N.[N+](=O)([O-])[O-]","-","-","AUTO_781","C0371_A0090","A132065","-","-","-","94.0","Celsius","-","-","-","-","94.0","Celsius","-","-","-","-","","-",""
"CCC[N+]1(C)COCC1.C(F)(F)(F)S(=O)(=O)[N-]S(=O)(=O)C(F)(F)F","-","-","AUTO_782","C0991_A0048","A132065","-","-","-","44.0","Celsius","-","-","-","-","44.0","Celsius","-","-","-","-","","-",""
"CCC[N+]1(C)COCC1.F[P-](F)(F)(F)(F)F","-","-","AUTO_783","C0991_A0011","A132065","-","-","-","41.0","Celsius","-","-","-","-","41.0","Celsius","-","-","-","-","","-",""
"CCCC[N+]1(C)COCC1.F[B-](F)(F)F","-","-","AUTO_784","C0543_A0020","A132065","-","-","-","-12.0","Celsius","-","-","-","-","-12.0","Celsius","-","-","-","-","","-",""
"CCCC[N+]1(C)COCC1.C(F)(F)(F)S(=O)(=O)[N-]S(=O)(=O)C(F)(F)F","-","-","AUTO_785","C0543_A0048","A132065","-","-","-","12.0","Celsius","-","-","-","-","12.0","Celsius","-","-","-","-","","-",""
"CCCC[N+]1(C)COCC1.FC(C(F)(F)F)(F)[B-](F)(F)F","-","-","AUTO_786","C0543_A0043","A132065","-","-","-","-4.0","Celsius","-","-","-","-","-4.0","Celsius","-","-","-","-","","-",""
"CCCC[N+]1(C)COCC1.FC(C(F)(F)[B-](F)(F)F)(C(F)(F)F)F","-","-","AUTO_787","C0543_A0009","A132065","-","-","-","53.0","Celsius","-","-","-","-","53.0","Celsius","-","-","-","-","","-",""
"CCCC[N+]1(C)COCC1.FC(C(C(F)(F)[B-](F)(F)F)(F)F)(C(F)(F)F)F","-","-","AUTO_788","C0543_A0021","A132065","-","-","-","54.0","Celsius","-","-","-","-","54.0","Celsius","-","-","-","-","","-",""
"COCC[N+]1(C)COCC1.FC(C(F)(F)F)(F)[B-](F)(F)F","-","-","AUTO_789","C0401_A0043","A132065","-","-","-","1.0","Celsius","-","-","-","-","1.0","Celsius","-","-","-","-","","-",""
"COCC[N+]1(C)COCC1.FC(C(F)(F)[B-](F)(F)F)(C(F)(F)F)F","-","-","AUTO_790","C0401_A0009","A132065","-","-","-","10.0","Celsius","-","-","-","-","10.0","Celsius","-","-","-","-","","-",""
"COCC[N+]1(C)COCC1.FC(C(C(F)(F)[B-](F)(F)F)(F)F)(C(F)(F)F)F","-","-","AUTO_791","C0401_A0021","A132065","-","-","-","18.0","Celsius","-","-","-","-","18.0","Celsius","-","-","-","-","","-",""
"CC[N+]1(CC)CCNCC1.FC(COS(=O)(=O)[O-])(C(C(C(F)F)(F)F)(F)F)F","-","-","AUTO_792","C0635_A0078","A132065","-","-","-","-7.0","Celsius","-","-","-","-","-7.0","Celsius","-","-","-","-","","-",""
"FC(C(S(F)(F)(F)(F)F)(F)F)(CC[N+]1=CC=CC=N1)F.C(F)(F)(F)S(=O)(=O)[N-]S(=O)(=O)C(F)(F)F","-","-","AUTO_793","C0675_A0048","A132065","-","-","-","-14.0","Celsius","-","-","-","-","-14.0","Celsius","-","-","-","-","","-",""
"OC(=O)C[NH3+].[Cl-]","-","-","AUTO_794","C0778_A0033","A132065","-","-","-","186.0","Celsius","-","-","-","-","186.0","Celsius","-","-","-","-","","-",""
"OC(=O)C[NH3+].F[B-](F)(F)F","-","-","AUTO_795","C0778_A0020","A132065","-","-","-","116.0","Celsius","-","-","-","-","116.0","Celsius","-","-","-","-","","-",""
"OC(=O)C[NH3+].[N+](=O)([O-])[O-]","-","-","AUTO_796","C0778_A0090","A132065","-","-","-","111.0","Celsius","-","-","-","-","111.0","Celsius","-","-","-","-","","-",""
"OC(=O)C[NH3+].F[P-](F)(F)(F)(F)F","-","-","AUTO_797","C0778_A0011","A132065","-","-","-","101.0","Celsius","-","-","-","-","101.0","Celsius","-","-","-","-","","-",""
"C[C@H]([NH3+])C(=O)O.F[B-](F)(F)F","-","-","AUTO_798","C0784_A0020","A132065","-","-","-","78.0","Celsius","-","-","-","-","78.0","Celsius","-","-","-","-","","-",""
"C[C@H]([NH3+])C(=O)O.[N+](=O)([O-])[O-]","-","-","AUTO_799","C0784_A0090","A132065","-","-","-","159.0","Celsius","-","-","-","-","159.0","Celsius","-","-","-","-","","-",""
"C[C@H]([NH3+])C(=O)O.FC(C(=O)[O-])(F)F","-","-","AUTO_800","C0784_A0064","A132065","-","-","-","82.0","Celsius","-","-","-","-","82.0","Celsius","-","-","-","-","","-",""
"OC(=O)[C@@H]1CCC[NH2+]1.F[B-](F)(F)F","-","-","AUTO_801","C0474_A0020","A132065","-","-","-","76.0","Celsius","-","-","-","-","76.0","Celsius","-","-","-","-","","-",""
"OC(=O)[C@@H]1CCC[NH2+]1.FC(C(=O)[O-])(F)F","-","-","AUTO_802","C0474_A0064","A132065","-","-","-","78.0","Celsius","-","-","-","-","78.0","Celsius","-","-","-","-","","-",""