"SMILES","CASRN","EXTERNALID","N","NAME","ARTICLEID","PUBMEDID","PAGE","TABLE","Melting Point","UNIT {Melting Point}","Decomposition","UNIT {Decomposition}","Glass-transition temperature (Tg)","UNIT {Glass-transition temperature (Tg)}","Melting Point {measured, converted}","UNIT {Melting Point}","Decomposition {measured, converted}","UNIT {Decomposition}","Glass-transition temperature (Tg) {measured, converted}","UNIT {Glass-transition temperature (Tg)}","weight loss","UNIT {weight loss}","Solvent"
"CCCC[N+]=1C=C(N(C1)C)C[C@H]2COC(=O)[C@H]2CC.[Br-]","-","-","AUTO_1220","C0228_A0004","A132065","-","-","-","111.0","Celsius","-","-","-","-","111.0","Celsius","-","-","-","-","","-",""
"COC(=O)CN1C=C[N+](=C1)CC(=O)C2=CC=CC=C2.[Br-]","-","-","AUTO_1221","C0757_A0004","A132065","-","-","-","125.0","Celsius","-","-","-","-","125.0","Celsius","-","-","-","-","","-",""
"CCCCCCCCN1C=[N+](C=2C1=CC=CC2)CCCCCCCC.[Br-]","-","-","AUTO_1222","C0928_A0004","A132065","-","-","-","107.0","Celsius","-","-","-","-","107.0","Celsius","-","-","-","-","","-",""
"CCCN1C=[N+](C=2C1=CC=CC2)CCC#N.[Br-]","-","-","AUTO_1223","C0363_A0004","A132065","-","-","-","120.0","Celsius","-","-","-","-","120.0","Celsius","-","-","-","-","","-",""
"CCCCCCCCCCN1C=C[N+](=C1C)C.[Br-]","-","-","AUTO_1224","C0342_A0004","A132065","-","-","-","85.0","Celsius","-","-","-","-","85.0","Celsius","-","-","-","-","","-",""
"CC[N+]=1C=CN(C1)C.[Br-]","-","-","AUTO_1225","C0460_A0004","A132065","-","-","-","78.0","Celsius","-","-","-","-","78.0","Celsius","-","-","-","-","","-",""
"OCC[N+]=1C=CN(C1)C.[Br-]","-","-","AUTO_1226","C0852_A0004","A132065","-","-","-","97.0","Celsius","-","-","-","-","97.0","Celsius","-","-","-","-","","-",""
"C1=CC=C(C=C1)CN2C=C[N+](=C2)CC3=CC=CC=C3.[Br-]","-","-","AUTO_1227","C0841_A0004","A132065","-","-","-","63.0","Celsius","-","-","-","-","63.0","Celsius","-","-","-","-","","-",""
"CCC[N+]=1C=CN(C1)C.[Br-]","-","-","AUTO_1228","C0811_A0004","A132065","-","-","-","35.0","Celsius","-","-","-","-","35.0","Celsius","-","-","-","-","","-",""
"BrC1=CC=C(C=C1)C(=O)CN2C=C[N+](=C2)CC(=O)C3=CC=C(C=C3)Br.[Br-]","-","-","AUTO_1229","C1102_A0004","A132065","-","-","-","289.0","Celsius","-","-","-","-","289.0","Celsius","-","-","-","-","","-",""
"CCCCCCCC[N+]1=C(N)N(C=2C1=CC=CC2)CC3=CC=CC=C3.[Br-]","-","-","AUTO_1230","C0419_A0004","A132065","-","-","-","278.0","Celsius","-","-","-","-","278.0","Celsius","-","-","-","-","","-",""
"O=C(C1=CC=CC=C1)C[N+]=2C=CN(C2C)CC3=CC=CC=C3.[Br-]","-","-","AUTO_1231","C0462_A0004","A132065","-","-","-","239.0","Celsius","-","-","-","-","239.0","Celsius","-","-","-","-","","-",""
"O=C(C(N1C=C[N+](=C1)C(C(=O)C2=CC=C(C=C2)C3=CC=CC=C3)(C)C)(C)C)C4=CC=C(C=C4)C5=CC=CC=C5.[Br-]","-","-","AUTO_1232","C0634_A0004","A132065","-","-","-","241.0","Celsius","-","-","-","-","241.0","Celsius","-","-","-","-","","-",""
"CN1C=C[N+](=C1)CC(=O)C2=CC=C(C=C2)C3=CC=CC=C3.[Br-]","-","-","AUTO_1233","C1129_A0004","A132065","-","-","-","249.0","Celsius","-","-","-","-","249.0","Celsius","-","-","-","-","","-",""
"CC1=CC=C(C=C1)C[N+]=2C=CN(C2C)CCC(C3=CC=CC=C3)(C4=CC=CC=C4)C(=O)N.[Br-]","-","-","AUTO_1234","C0119_A0004","A132065","-","-","-","241.0","Celsius","-","-","-","-","241.0","Celsius","-","-","-","-","","-",""
"OC(=O)CCCN1C(C)=[N+](C=2C1=CC=CC2)CC3=CC=CC=C3.[Br-]","-","-","AUTO_1235","C0263_A0004","A132065","-","-","-","235.0","Celsius","-","-","-","-","235.0","Celsius","-","-","-","-","","-",""
"CC(=O)C([N+]1=C(C)N(C=2C1=CC=CC2)C)C.[Br-]","-","-","AUTO_1236","C0012_A0004","A132065","-","-","-","255.0","Celsius","-","-","-","-","255.0","Celsius","-","-","-","-","","-",""
"CC1=CC=C2C(=C1)[N+](CC(=O)C3=CC=CC=C3)=CN2C.[Br-]","-","-","AUTO_1237","C0464_A0004","A132065","-","-","-","245.0","Celsius","-","-","-","-","245.0","Celsius","-","-","-","-","","-",""
"O=C(C1=CC=C(C=C1)N(=O)=O)C[N+]2=C(C)N(C=3C2=CC=CC3)CC4=CC=CC=C4.[Br-]","-","-","AUTO_1238","C0066_A0004","A132065","-","-","-","248.0","Celsius","-","-","-","-","248.0","Celsius","-","-","-","-","","-",""
"CCCCCCCCCN1C(C)=[N+](C=2C1=CC=CC2)CCCCCCCCC.[Br-]","-","-","AUTO_1239","C0513_A0004","A132065","-","-","-","246.0","Celsius","-","-","-","-","246.0","Celsius","-","-","-","-","","-",""
"O=C(C1=CC=C(C=C1)N(=O)=O)CN2C=C[N+](=C2)CC(=O)C3=CC=C(C=C3)N(=O)=O.[Br-]","-","-","AUTO_1240","C0456_A0004","A132065","-","-","-","215.0","Celsius","-","-","-","-","215.0","Celsius","-","-","-","-","","-",""
"BrC1=CC=C(C=C1)C[N+]=2C=CN(C2C)CCC(C3=CC=CC=C3)(C4=CC=CC=C4)C(=O)N.[Br-]","-","-","AUTO_1241","C0898_A0004","A132065","-","-","-","220.0","Celsius","-","-","-","-","220.0","Celsius","-","-","-","-","","-",""
"CCOC(=O)C[N+]1=C(C)N(C=2C1=CC=CC2)C.[Br-]","-","-","AUTO_1242","C0672_A0004","A132065","-","-","-","215.0","Celsius","-","-","-","-","215.0","Celsius","-","-","-","-","","-",""
"COC(=O)CN1C(C)=[N+](C=2C1=CC=CC2)CC(=O)C3=CC=CC=C3.[Br-]","-","-","AUTO_1243","C0139_A0004","A132065","-","-","-","205.0","Celsius","-","-","-","-","205.0","Celsius","-","-","-","-","","-",""
"CCOC(=O)CN1C(C)=[N+](C=2C1=CC=CC2)CC(=O)C3=CC=CC=C3.[Br-]","-","-","AUTO_1244","C0306_A0004","A132065","-","-","-","215.0","Celsius","-","-","-","-","215.0","Celsius","-","-","-","-","","-",""
"CCCCN1C(C)=[N+](C=2C1=CC(Cl)=C(C2)Cl)CCCC(=O)O.[Br-]","-","-","AUTO_1245","C0445_A0004","A132065","-","-","-","217.0","Celsius","-","-","-","-","217.0","Celsius","-","-","-","-","","-",""
"CCCCN1C2=CC(Cl)=C(C=C2N(C1=CC=CC3=[N+](CCCC(=O)O)C=4C(N3CCCC)=CC(=C(C4)Cl)Cl)CCCC(=O)O)Cl.[Br-]","-","-","AUTO_1246","C0941_A0004","A132065","-","-","-","200.0","Celsius","-","-","-","-","200.0","Celsius","-","-","-","-","","-",""
"CN1C=C[N+](=C1)CCC2=CC=C(C=C2)N(=O)=O.[Br-]","-","-","AUTO_1247","C0731_A0004","A132065","-","-","-","185.0","Celsius","-","-","-","-","185.0","Celsius","-","-","-","-","","-",""
"CC[C@@H]1C(=O)OC[C@@H]1CC2=C[N+](=CN2C)CC3=CC=C(C=C3)C.[Br-]","-","-","AUTO_1248","C0824_A0004","A132065","-","-","-","188.0","Celsius","-","-","-","-","188.0","Celsius","-","-","-","-","","-",""
"CN1C=C[N+](=C1)C(C(=O)C2=CC=CC=C2)C.[Br-]","-","-","AUTO_1249","C0573_A0004","A132065","-","-","-","169.0","Celsius","-","-","-","-","169.0","Celsius","-","-","-","-","","-",""
"N#CCC[N+]=1C=CN(C1)CC(=O)C2=CC=CC=C2.[Br-]","-","-","AUTO_1250","C1046_A0004","A132065","-","-","-","186.0","Celsius","-","-","-","-","186.0","Celsius","-","-","-","-","","-",""
"C=CC[N+]1=CN(C=2C1=CC=CC2)C.[Br-]","-","-","AUTO_1251","C0924_A0004","A132065","-","-","-","163.0","Celsius","-","-","-","-","163.0","Celsius","-","-","-","-","","-",""
"O=C(C1=CC=CC=C1)C[N+]2=CN(C=3C2=CC=CC3)CC4=CC=CC=C4.[Br-]","-","-","AUTO_1252","C1106_A0004","A132065","-","-","-","180.0","Celsius","-","-","-","-","180.0","Celsius","-","-","-","-","","-",""
"C=CCN1C=[N+](C=2C1=CC=CC2)CC.[Br-]","-","-","AUTO_1253","C0829_A0004","A132065","-","-","-","175.0","Celsius","-","-","-","-","175.0","Celsius","-","-","-","-","","-",""
"CC[C@@H]1C(=O)OC[C@@H]1CC2=C[N+](=CN2C)CC(=O)C3=CC=C(C=C3)N(=O)=O.[Br-]","-","-","AUTO_1254","C0266_A0004","A132065","-","-","-","140.0","Celsius","-","-","-","-","140.0","Celsius","-","-","-","-","","-",""
"CN1C=C[N+](=C1)C(C(=O)C2=CC=CC=C2)(C)C.[Br-]","-","-","AUTO_1255","C0383_A0004","A132065","-","-","-","139.0","Celsius","-","-","-","-","139.0","Celsius","-","-","-","-","","-",""
"CCCN1C=C[N+](=C1)CCC.[Br-]","-","-","AUTO_1256","C0575_A0004","A132065","-","-","-","135.0","Celsius","-","-","-","-","135.0","Celsius","-","-","-","-","","-",""
"CC(N1C=C[N+](=C1)C(C)C)C.[Br-]","-","-","AUTO_1257","C0953_A0004","A132065","-","-","-","137.0","Celsius","-","-","-","-","137.0","Celsius","-","-","-","-","","-",""
"CCCCCCCCCCCCN1C2=CC(Cl)=C(C=C2[N+](=C1C)CCCC(=O)O)Cl.[Br-]","-","-","AUTO_1258","C0265_A0004","A132065","-","-","-","142.0","Celsius","-","-","-","-","142.0","Celsius","-","-","-","-","","-",""
"CCCCCCCCCC[N+]=1C2=CC(Cl)=C(C=C2N(C1C)CCCC(=O)O)Cl.[Br-]","-","-","AUTO_1259","C1032_A0004","A132065","-","-","-","157.0","Celsius","-","-","-","-","157.0","Celsius","-","-","-","-","","-",""
"CN1C=C[N+](=C1)C.[Br-]","-","-","AUTO_1260","C0958_A0004","A132065","-","-","-","112.0","Celsius","-","-","-","-","112.0","Celsius","-","-","-","-","","-",""
"CC[C@@H]1C(=O)OC[C@@H]1CC2=C[N+](=CN2C)CC3=CC=CC=C3.[Br-]","-","-","AUTO_1261","C1033_A0004","A132065","-","-","-","126.0","Celsius","-","-","-","-","126.0","Celsius","-","-","-","-","","-",""
"CCCCCCCCCCCCCCCCN1C(=CC=CC=2N(CCCCCCCCCCCCCCCC)C=3C([N+]2CCCCCCCCCCCCCCCC)=CC=CC3)N(C=4C1=CC=CC4)CCCCCCCCCCCCCCCC.[Br-]","-","-","AUTO_1262","C0324_A0004","A132065","-","-","-","127.0","Celsius","-","-","-","-","127.0","Celsius","-","-","-","-","","-",""
"C=CCN1C=[N+](C=2C1=CC=CC2)CCC#N.[Br-]","-","-","AUTO_1263","C0187_A0004","A132065","-","-","-","114.0","Celsius","-","-","-","-","114.0","Celsius","-","-","-","-","","-",""
"CCCCCCCCCC[N+]=1C=CN(C1C)CC2=CC=CC=C2.[Br-]","-","-","AUTO_1264","C0578_A0004","A132065","-","-","-","88.0","Celsius","-","-","-","-","88.0","Celsius","-","-","-","-","","-",""
"CCCC[N+]=1C=CN(C1)C.[Br-]","-","-","AUTO_1265","C0505_A0004","A132065","-","-","-","78.0","Celsius","-","-","-","-","78.0","Celsius","-","-","-","-","","-",""
"C=CCN1C=C[N+](=C1)C.[Br-]","-","-","AUTO_1266","C0316_A0004","A132065","-","-","-","53.0","Celsius","-","-","-","-","53.0","Celsius","-","-","-","-","","-",""
"OC[C@@H](N1C=C[N+](=C1)CC)C.[Br-]","-","-","AUTO_1267","C0604_A0004","A132065","-","-","-","6.0","Celsius","-","-","-","-","6.0","Celsius","-","-","-","-","","-",""
"CCOC(=O)C[N+](C)(C)C.[Br-]","-","-","AUTO_1268","C0055_A0004","A132065","-","-","-","159.0","Celsius","-","-","-","-","159.0","Celsius","-","-","-","-","","-",""
"CCCCCCCCCCCCCCCC[N+](CCCC)(C)C.[Br-]","-","-","AUTO_1269","C0933_A0004","A132065","-","-","-","84.0","Celsius","-","-","-","-","84.0","Celsius","-","-","-","-","","-",""
"CCCCCCC(=O)C[N+](CC)(CC)CC.[Br-]","-","-","AUTO_1270","C0347_A0004","A132065","-","-","-","103.0","Celsius","-","-","-","-","103.0","Celsius","-","-","-","-","","-",""
"CCCCCCCCCCCCCCCC[N+](CCO)(CCO)C.[Br-]","-","-","AUTO_1271","C0204_A0004","A132065","-","-","-","129.0","Celsius","-","-","-","-","129.0","Celsius","-","-","-","-","","-",""
"CCCCCCCCCCCCCCCC[N+](C1=CC=CC=C1)(C)C.[Br-]","-","-","AUTO_1272","C0269_A0004","A132065","-","-","-","117.0","Celsius","-","-","-","-","117.0","Celsius","-","-","-","-","","-",""
"CCCCCCCC[N+](CCO)(C)C.[Br-]","-","-","AUTO_1273","C0605_A0004","A132065","-","-","-","117.0","Celsius","-","-","-","-","117.0","Celsius","-","-","-","-","","-",""
"CCCCCCCCC[N+](CCO)(C)C.[Br-]","-","-","AUTO_1274","C1105_A0004","A132065","-","-","-","122.0","Celsius","-","-","-","-","122.0","Celsius","-","-","-","-","","-",""
"CCCCCCCCCCCC[N+](CCO)(C)C.[Br-]","-","-","AUTO_1275","C0194_A0004","A132065","-","-","-","195.0","Celsius","-","-","-","-","195.0","Celsius","-","-","-","-","","-",""
"CCCCCCCCCCCCCCC[N+](CCO)(C)C.[Br-]","-","-","AUTO_1276","C1024_A0004","A132065","-","-","-","204.0","Celsius","-","-","-","-","204.0","Celsius","-","-","-","-","","-",""
"CCCCCCCCCCCCCCCCCC[N+](CCO)(C)C.[Br-]","-","-","AUTO_1277","C0703_A0004","A132065","-","-","-","204.0","Celsius","-","-","-","-","204.0","Celsius","-","-","-","-","","-",""
"CCCCCCCCCCCCCCC(C[N+](CCO)(C)C)O.[Br-]","-","-","AUTO_1278","C0994_A0004","A132065","-","-","-","79.0","Celsius","-","-","-","-","79.0","Celsius","-","-","-","-","","-",""
"CCCCCCCCCCCCCCCC[N+](CC(CO)O)(C)C.[Br-]","-","-","AUTO_1279","C0749_A0004","A132065","-","-","-","66.0","Celsius","-","-","-","-","66.0","Celsius","-","-","-","-","","-",""
"CCCCCCCCCCCCCCCCCCCC[N+](CCCCCCCCCCCCCCCCCCCC)(C)C.[Br-]","-","-","AUTO_1280","C0008_A0004","A132065","-","-","-","138.0","Celsius","-","-","-","-","138.0","Celsius","-","-","-","-","","-",""
"CC(CCC[N+](C)(C)C)C.[Br-]","-","-","AUTO_1281","C0344_A0004","A132065","-","-","-","210.0","Celsius","-","-","-","-","210.0","Celsius","-","-","-","-","","-",""
"OCC[N+](C(C)C)(C)C.[Br-]","-","-","AUTO_1282","C1133_A0004","A132065","-","-","-","274.0","Celsius","-","-","-","-","274.0","Celsius","-","-","-","-","","-",""
"CCCC[N+](CC)(CC)CC.[Br-]","-","-","AUTO_1283","C0756_A0004","A132065","-","-","-","208.0","Celsius","-","-","-","-","208.0","Celsius","-","-","-","-","","-",""
"CCCC[N+](CCCC)(C)C.[Br-]","-","-","AUTO_1284","C0313_A0004","A132065","-","-","-","166.0","Celsius","-","-","-","-","166.0","Celsius","-","-","-","-","","-",""
"CCC(C[N+](C)(C)C)(O)C.[Br-]","-","-","AUTO_1285","C0552_A0004","A132065","-","-","-","169.0","Celsius","-","-","-","-","169.0","Celsius","-","-","-","-","","-",""
"CCC(C[N+](C)(C)C)OC.[Br-]","-","-","AUTO_1286","C0017_A0004","A132065","-","-","-","123.0","Celsius","-","-","-","-","123.0","Celsius","-","-","-","-","","-",""
"CCOC(C[N+](C)(C)C)CC.[Br-]","-","-","AUTO_1287","C0193_A0004","A132065","-","-","-","160.0","Celsius","-","-","-","-","160.0","Celsius","-","-","-","-","","-",""
"CCCC(C[N+](C)(C)C)OC.[Br-]","-","-","AUTO_1288","C0113_A0004","A132065","-","-","-","102.0","Celsius","-","-","-","-","102.0","Celsius","-","-","-","-","","-",""
"CCCCCCCCC[N+](C)(C)C.[Br-]","-","-","AUTO_1289","C1131_A0004","A132065","-","-","-","212.0","Celsius","-","-","-","-","212.0","Celsius","-","-","-","-","","-",""
"OCCOCC[N+](C)(C)C.[Br-]","-","-","AUTO_1290","C0368_A0004","A132065","-","-","-","85.0","Celsius","-","-","-","-","85.0","Celsius","-","-","-","-","","-",""
"CCCOC(C[N+](C)(C)C)CC.[Br-]","-","-","AUTO_1291","C1157_A0004","A132065","-","-","-","148.0","Celsius","-","-","-","-","148.0","Celsius","-","-","-","-","","-",""
"CCCCC(C[N+](C)(C)C)OC.[Br-]","-","-","AUTO_1292","C0158_A0004","A132065","-","-","-","99.0","Celsius","-","-","-","-","99.0","Celsius","-","-","-","-","","-",""
"CCCC(C[N+](C)(C)C)OCC.[Br-]","-","-","AUTO_1293","C0302_A0004","A132065","-","-","-","148.0","Celsius","-","-","-","-","148.0","Celsius","-","-","-","-","","-",""
"CCCCCCC[N+](CC)(CC)CC.[Br-]","-","-","AUTO_1294","C0557_A0004","A132065","-","-","-","110.0","Celsius","-","-","-","-","110.0","Celsius","-","-","-","-","","-",""
"CC[N+](CCC(C)C)(CCC(C)C)C.[Br-]","-","-","AUTO_1295","C0022_A0004","A132065","-","-","-","127.0","Celsius","-","-","-","-","127.0","Celsius","-","-","-","-","","-",""
"CCCC[N+](CCCC)(CCCC)C.[Br-]","-","-","AUTO_1296","C0337_A0004","A132065","-","-","-","121.0","Celsius","-","-","-","-","121.0","Celsius","-","-","-","-","","-",""
"CCOCC[N+](CC)(CC)CC.[Br-]","-","-","AUTO_1297","C1072_A0004","A132065","-","-","-","98.0","Celsius","-","-","-","-","98.0","Celsius","-","-","-","-","","-",""
"CC[N+](CC#C)(CC)CC.[Br-]","-","-","AUTO_1298","C0387_A0004","A132065","-","-","-","199.0","Celsius","-","-","-","-","199.0","Celsius","-","-","-","-","","-",""
"CCCCC(C[N+](C)(C)C)OCC.[Br-]","-","-","AUTO_1299","C0128_A0004","A132065","-","-","-","149.0","Celsius","-","-","-","-","149.0","Celsius","-","-","-","-","","-",""
"CCCCOC(C[N+](C)(C)C)CC.[Br-]","-","-","AUTO_1300","C0229_A0004","A132065","-","-","-","129.0","Celsius","-","-","-","-","129.0","Celsius","-","-","-","-","","-",""
"CCCCOC(C[N+](C)(C)C)CCC.[Br-]","-","-","AUTO_1301","C0611_A0004","A132065","-","-","-","111.0","Celsius","-","-","-","-","111.0","Celsius","-","-","-","-","","-",""
"C=CC[N+](CC=C)(CC=C)C.[Br-]","-","-","AUTO_1302","C0763_A0004","A132065","-","-","-","90.0","Celsius","-","-","-","-","90.0","Celsius","-","-","-","-","","-",""
"CCCCCCCCC(C[N+](C)(C)C)CC.[Br-]","-","-","AUTO_1303","C0916_A0004","A132065","-","-","-","226.0","Celsius","-","-","-","-","226.0","Celsius","-","-","-","-","","-",""
"CCCCCOC(C[N+](C)(C)C)CCC.[Br-]","-","-","AUTO_1304","C0404_A0004","A132065","-","-","-","106.0","Celsius","-","-","-","-","106.0","Celsius","-","-","-","-","","-",""
"CC[N+](CC(CC(C)(C)C)(O)C)(CC)C.[Br-]","-","-","AUTO_1305","C0330_A0004","A132065","-","-","-","125.0","Celsius","-","-","-","-","125.0","Celsius","-","-","-","-","","-",""
"CCOC(=C)[N+](C)(C)C.[Br-]","-","-","AUTO_1306","C1120_A0004","A132065","-","-","-","151.0","Celsius","-","-","-","-","151.0","Celsius","-","-","-","-","","-",""
"CC([N+](C)(C)C)CC1CCCCCC1.[Br-]","-","-","AUTO_1307","C0349_A0004","A132065","-","-","-","273.0","Celsius","-","-","-","-","273.0","Celsius","-","-","-","-","","-",""
"C=COCC[N+](CC)(CC)CC.[Br-]","-","-","AUTO_1308","C0726_A0004","A132065","-","-","-","95.0","Celsius","-","-","-","-","95.0","Celsius","-","-","-","-","","-",""
"CC([N+](C)(C)C)CC1CCCCCCC1.[Br-]","-","-","AUTO_1309","C0753_A0004","A132065","-","-","-","249.0","Celsius","-","-","-","-","249.0","Celsius","-","-","-","-","","-",""
"CC(C[N+](CC(CC(C)(C)C)C)(C)C)CC(C)(C)C.[Br-]","-","-","AUTO_1310","C0206_A0004","A132065","-","-","-","210.0","Celsius","-","-","-","-","210.0","Celsius","-","-","-","-","","-",""
"CCCCCCCCCCCC[N+](CCCC)(C)C.[Br-]","-","-","AUTO_1311","C0831_A0004","A132065","-","-","-","40.0","Celsius","-","-","-","-","40.0","Celsius","-","-","-","-","","-",""
"C=CC[N+](CC#C)(CC=C)CC=C.[Br-]","-","-","AUTO_1312","C0869_A0004","A132065","-","-","-","103.0","Celsius","-","-","-","-","103.0","Celsius","-","-","-","-","","-",""
"CCCC[N+](CC(C=C)O)(C)C.[Br-]","-","-","AUTO_1313","C0917_A0004","A132065","-","-","-","79.0","Celsius","-","-","-","-","79.0","Celsius","-","-","-","-","","-",""
"C=CC[N+](CC1=CC=CC=C1)(C)C.[Br-]","-","-","AUTO_1314","C0160_A0004","A132065","-","-","-","89.0","Celsius","-","-","-","-","89.0","Celsius","-","-","-","-","","-",""
"CCCC[N+](CC#C)(CC#C)CC=C.[Br-]","-","-","AUTO_1315","C0805_A0004","A132065","-","-","-","89.0","Celsius","-","-","-","-","89.0","Celsius","-","-","-","-","","-",""
"CC1=CC=CC=C1C[N+](C)(C)C.[Br-]","-","-","AUTO_1316","C0959_A0004","A132065","-","-","-","201.0","Celsius","-","-","-","-","201.0","Celsius","-","-","-","-","","-",""
"C=CC[N+](C1=CC=CC=C1)(C)C.[Br-]","-","-","AUTO_1317","C0788_A0004","A132065","-","-","-","124.0","Celsius","-","-","-","-","124.0","Celsius","-","-","-","-","","-",""
"CCCC(=O)OCC[N+](C)(C)C.[Br-]","-","-","AUTO_1318","C0230_A0004","A132065","-","-","-","101.0","Celsius","-","-","-","-","101.0","Celsius","-","-","-","-","","-",""
"C[N+](CCCCC1=CC=CC=C1)(C)C.[Br-]","-","-","AUTO_1319","C0944_A0004","A132065","-","-","-","180.0","Celsius","-","-","-","-","180.0","Celsius","-","-","-","-","","-",""
"C[N+](CCCCCC1=CC=CC=C1)(C)C.[Br-]","-","-","AUTO_1320","C0186_A0004","A132065","-","-","-","163.0","Celsius","-","-","-","-","163.0","Celsius","-","-","-","-","","-",""
"CCC[N+](CC1=CC=CC=C1)(C)C.[Br-]","-","-","AUTO_1321","C0185_A0004","A132065","-","-","-","140.0","Celsius","-","-","-","-","140.0","Celsius","-","-","-","-","","-",""
"COC1=CC=C(C=C1)C[N+](C)(C)C.[Br-]","-","-","AUTO_1322","C1062_A0004","A132065","-","-","-","146.0","Celsius","-","-","-","-","146.0","Celsius","-","-","-","-","","-",""
"CCCCCCCCCCCCCCCCCC[N+](CC)(CC)CC.[Br-]","-","-","AUTO_1323","C1142_A0004","A132065","-","-","-","160.0","Celsius","-","-","-","-","160.0","Celsius","-","-","-","-","","-",""
"CCCCCCCCCCCCCCCC[N+](CCCC)(CCCC)C.[Br-]","-","-","AUTO_1324","C0880_A0004","A132065","-","-","-","51.0","Celsius","-","-","-","-","51.0","Celsius","-","-","-","-","","-",""
"OCC[N+](CC1=CC=CC=C1)(C)C.[Br-]","-","-","AUTO_1325","C0294_A0004","A132065","-","-","-","83.0","Celsius","-","-","-","-","83.0","Celsius","-","-","-","-","","-",""
"CC[N+](CC(C1=CC=CC=C1)O)(CC)C.[Br-]","-","-","AUTO_1326","C1149_A0004","A132065","-","-","-","155.0","Celsius","-","-","-","-","155.0","Celsius","-","-","-","-","","-",""
"CCCCCCCCCC[N+](CC(=O)O)(C)C.[Br-]","-","-","AUTO_1327","C0071_A0004","A132065","-","-","-","153.0","Celsius","-","-","-","-","153.0","Celsius","-","-","-","-","","-",""
"C=CC[N+](C1=CC=CC=C1)(CC#C)CC=C.[Br-]","-","-","AUTO_1328","C0217_A0004","A132065","-","-","-","138.0","Celsius","-","-","-","-","138.0","Celsius","-","-","-","-","","-",""
"CCC[N+](CC1=CC=CC=C1)(CCC)CCC.[Br-]","-","-","AUTO_1329","C1015_A0004","A132065","-","-","-","188.0","Celsius","-","-","-","-","188.0","Celsius","-","-","-","-","","-",""
"OCC([N+](CC)(CC)C)C1=CC=CC=C1.[Br-]","-","-","AUTO_1330","C0712_A0004","A132065","-","-","-","153.0","Celsius","-","-","-","-","153.0","Celsius","-","-","-","-","","-",""