"SMILES","CASRN","EXTERNALID","N","NAME","ARTICLEID","PUBMEDID","PAGE","TABLE","Melting Point","UNIT {Melting Point}","Decomposition","UNIT {Decomposition}","Glass-transition temperature (Tg)","UNIT {Glass-transition temperature (Tg)}","Melting Point {measured, converted}","UNIT {Melting Point}","Decomposition {measured, converted}","UNIT {Decomposition}","Glass-transition temperature (Tg) {measured, converted}","UNIT {Glass-transition temperature (Tg)}","weight loss","UNIT {weight loss}","Solvent"
"CCCCCCCCCCCCCCCC[P+](CCCCCC)(CCCCCC)CCCCCC.CC1=CC(=O)[N-]S(=O)(=O)O1","-","-","AUTO_469","C1446_A0049","A133072","-","-","-","-","-","210.0","Celsius","-","-","-","-","210.0","Celsius","-","-","","-",""
"CCCC[P+](C1=CC=CC=C1)(C2=CC=CC=C2)C3=CC=CC=C3.C(C1=CC=CC=C1)(=O)[O-]","-","-","AUTO_470","C0990_A0031","A133072","-","-","-","-","-","236.0","Celsius","-","-","-","-","236.0","Celsius","-","-","","-",""
"C(CCCCCCC)[P+](CC)(CC)CC.FC(S(=O)(=O)[N-]S(=O)(=O)C(F)(F)F)(F)F","-","-","AUTO_471","C1210_A0048","A133072","-","-","-","-","-","400.0","Celsius","-","-","-","-","400.0","Celsius","-","-","","-",""
"CCOC(=[N+](C)C)N(C)C.C(C(F)(F)[P-](C(C(F)(F)F)(F)F)(C(C(F)(F)F)(F)F)(F)(F)F)(F)(F)F","-","-","AUTO_472","C0722_A0071","A133072","-","-","-","-","-","220.0","Celsius","-","-","-","-","220.0","Celsius","-","-","","-",""
"OCC[N+]1(C)CCOCC1.F[B-](F)(F)F","-","-","AUTO_473","C1044_A0020","A133072","-","-","-","-","-","300.0","Celsius","-","-","-","-","300.0","Celsius","-","-","","-",""
"OCC[N+]1(C)CCOCC1.FC(S(=O)(=O)[N-]S(=O)(=O)C(F)(F)F)(F)F","-","-","AUTO_474","C1044_A0048","A133072","-","-","-","-","-","370.0","Celsius","-","-","-","-","370.0","Celsius","-","-","","-",""
"OCC[N+]1(C)CCOCC1.F[P-](F)(F)(F)(F)F","-","-","AUTO_475","C1044_A0011","A133072","-","-","-","-","-","280.0","Celsius","-","-","-","-","280.0","Celsius","-","-","","-",""
"COC(=O)C[N+]1(C)CCOCC1.FC(S(=O)(=O)[N-]S(=O)(=O)C(F)(F)F)(F)F","-","-","AUTO_476","C1456_A0048","A133072","-","-","-","-","-","310.0","Celsius","-","-","-","-","310.0","Celsius","-","-","","-",""
"CCC[N+]1(C)CCOCC1.Cl(=O)(=O)(=O)[O-]","-","-","AUTO_477","C0318_A0051","A133072","-","-","-","-","-","312.0","Celsius","-","-","-","-","312.0","Celsius","-","-","","-",""
"CCC[N+]1(C)CCOCC1.[N+](=O)([O-])[O-]","-","-","AUTO_478","C0318_A0090","A133072","-","-","-","-","-","285.0","Celsius","-","-","-","-","285.0","Celsius","-","-","","-",""
"CCC[N+]1(C)CCOCC1.FC(S(=O)(=O)[N-]S(=O)(=O)C(F)(F)F)(F)F","-","-","AUTO_479","C0318_A0048","A133072","-","-","-","-","-","200.0","Celsius","-","-","-","-","200.0","Celsius","-","-","","-",""
"CCC[N+]1(C)CCOCC1.F[P-](F)(F)(F)(F)F","-","-","AUTO_480","C0318_A0011","A133072","-","-","-","-","-","200.0","Celsius","-","-","-","-","200.0","Celsius","-","-","","-",""
"FCCC[N+]1(C)CCOCC1.Cl(=O)(=O)(=O)[O-]","-","-","AUTO_481","C0700_A0051","A133072","-","-","-","-","-","276.0","Celsius","-","-","-","-","276.0","Celsius","-","-","","-",""
"FCCC[N+]1(C)CCOCC1.FC(S(=O)(=O)[N-]S(=O)(=O)C(F)(F)F)(F)F","-","-","AUTO_482","C0700_A0048","A133072","-","-","-","-","-","342.0","Celsius","-","-","-","-","342.0","Celsius","-","-","","-",""
"FCCC[N+]1(C)CCOCC1.[N+](=O)([O-])[O-]","-","-","AUTO_483","C0700_A0090","A133072","-","-","-","-","-","289.0","Celsius","-","-","-","-","289.0","Celsius","-","-","","-",""
"FCCC[N+]1(C)CCOCC1.FC(S(=O)(=O)[O-])(F)F","-","-","AUTO_484","C0700_A0084","A133072","-","-","-","-","-","293.0","Celsius","-","-","-","-","293.0","Celsius","-","-","","-",""
"FCCC[N+]1(C)CCOCC1.F[P-](F)(F)(F)(F)F","-","-","AUTO_485","C0700_A0011","A133072","-","-","-","-","-","196.0","Celsius","-","-","-","-","196.0","Celsius","-","-","","-",""
"CCO[C@@H]([N+]1(C)CCOCC1)C.FC(S(=O)(=O)[N-]S(=O)(=O)C(F)(F)F)(F)F","-","-","AUTO_486","C1463_A0048","A133072","-","-","-","-","-","389.0","Celsius","-","-","-","-","389.0","Celsius","-","-","","-",""
"FC(COCC[N+]1(C)CCOCC1)(F)F.FC(S(=O)(=O)[N-]S(=O)(=O)C(F)(F)F)(F)F","-","-","AUTO_487","C0793_A0048","A133072","-","-","-","-","-","412.0","Celsius","-","-","-","-","412.0","Celsius","-","-","","-",""
"FC(COCC[N+]1(C)CCOCC1)(F)F.[N+](=O)([O-])[O-]","-","-","AUTO_488","C0793_A0090","A133072","-","-","-","-","-","277.0","Celsius","-","-","-","-","277.0","Celsius","-","-","","-",""
"FC(COCC[N+]1(C)CCOCC1)(F)F.F[P-](F)(F)(F)(F)F","-","-","AUTO_489","C0793_A0011","A133072","-","-","-","-","-","268.0","Celsius","-","-","-","-","268.0","Celsius","-","-","","-",""
"CCCCCO[C@@H]([N+]1(C)CCOCC1)C.FC(S(=O)(=O)[N-]S(=O)(=O)C(F)(F)F)(F)F","-","-","AUTO_490","C1473_A0048","A133072","-","-","-","-","-","410.0","Celsius","-","-","-","-","410.0","Celsius","-","-","","-",""
"FC([C@H]([N+]1(C)CCOCC1)OCCC(C(C(F)F)(F)F)(F)F)F.FC(S(=O)(=O)[N-]S(=O)(=O)C(F)(F)F)(F)F","-","-","AUTO_491","C1457_A0048","A133072","-","-","-","-","-","400.0","Celsius","-","-","-","-","400.0","Celsius","-","-","","-",""
"FC([C@H]([N+]1(C)CCOCC1)OCCC(C(C(F)F)(F)F)(F)F)F.F[P-](F)(F)(F)(F)F","-","-","AUTO_492","C1457_A0011","A133072","-","-","-","-","-","260.0","Celsius","-","-","-","-","260.0","Celsius","-","-","","-",""
"C1COCC[NH2+]1.FC(F)(F)C(=O)[CH-]C(=O)C(F)(F)F","-","-","AUTO_493","C0440_A0010","A133072","-","-","-","-","-","184.0","Celsius","-","-","-","-","184.0","Celsius","-","-","","-",""
"C1COCC[NH2+]1.CC(C)(C)C(=O)[CH-]C(=O)C(F)(F)C(F)(F)C(F)(F)F","-","-","AUTO_494","C0440_A0037","A133072","-","-","-","-","-","176.0","Celsius","-","-","-","-","176.0","Celsius","-","-","","-",""
"C1COCC[NH2+]1.FC(F)(F)C(=O)[CH-]C(=O)C1=CC=CO1","-","-","AUTO_495","C0440_A0036","A133072","-","-","-","-","-","145.0","Celsius","-","-","-","-","145.0","Celsius","-","-","","-",""
"C1COCC[NH2+]1.FC(F)(F)C(=O)[CH-]C(=O)C1=CC=CS1","-","-","AUTO_496","C0440_A0005","A133072","-","-","-","-","-","135.0","Celsius","-","-","-","-","135.0","Celsius","-","-","","-",""
"CC(=O)[NH+]1CCOCC1.O=C(C(F)(F)F)[CH-]C(=O)C","-","-","AUTO_497","C1459_A0116","A133072","-","-","-","-","-","140.0","Celsius","-","-","-","-","140.0","Celsius","-","-","","-",""
"CC(=O)[NH+]1CCOCC1.FC(F)(F)C(=O)[CH-]C(=O)C(F)(F)F","-","-","AUTO_498","C1459_A0010","A133072","-","-","-","-","-","143.0","Celsius","-","-","-","-","143.0","Celsius","-","-","","-",""
"CC(=O)[NH+]1CCOCC1.CC(C)(C)C(=O)[CH-]C(=O)C(F)(F)C(F)(F)C(F)(F)F","-","-","AUTO_499","C1459_A0037","A133072","-","-","-","-","-","152.0","Celsius","-","-","-","-","152.0","Celsius","-","-","","-",""
"CC(=O)[NH+]1CCOCC1.FC(F)(F)C(=O)[CH-]C(=O)C1=CC=CO1","-","-","AUTO_500","C1459_A0036","A133072","-","-","-","-","-","124.0","Celsius","-","-","-","-","124.0","Celsius","-","-","","-",""
"CC[N+]1(C)CCOCC1.FC(S(=O)(=O)[N-]S(=O)(=O)C(F)(F)F)(F)F","-","-","AUTO_501","C0561_A0048","A133072","-","-","-","-","-","410.0","Celsius","-","-","-","-","410.0","Celsius","-","-","","-",""
"CCCC[N+]1(C)CCOCC1.FC(S(=O)(=O)[N-]S(=O)(=O)C(F)(F)F)(F)F","-","-","AUTO_502","C0750_A0048","A133072","-","-","-","-","-","398.0","Celsius","-","-","-","-","398.0","Celsius","-","-","","-",""
"CCCC[N+]1(C)CCOCC1.FC(C(F)(F)F)(F)[B-](F)(F)F","-","-","AUTO_503","C0750_A0043","A133072","-","-","-","-","-","303.0","Celsius","-","-","-","-","303.0","Celsius","-","-","","-",""
"CCCC[N+]1(C)CCOCC1.FC(C(F)(F)[B-](F)(F)F)(C(F)(F)F)F","-","-","AUTO_504","C0750_A0009","A133072","-","-","-","-","-","317.0","Celsius","-","-","-","-","317.0","Celsius","-","-","","-",""
"CCCC[N+]1(C)CCOCC1.FC(C(C(F)(F)[B-](F)(F)F)(F)F)(C(F)(F)F)F","-","-","AUTO_505","C0750_A0021","A133072","-","-","-","-","-","301.0","Celsius","-","-","-","-","301.0","Celsius","-","-","","-",""
"COCC[N+]1(C)CCOCC1.F[B-](F)(F)F","-","-","AUTO_506","C1051_A0020","A133072","-","-","-","-","-","365.0","Celsius","-","-","-","-","365.0","Celsius","-","-","","-",""
"COCC[N+]1(C)CCOCC1.FC(S(=O)(=O)[N-]S(=O)(=O)C(F)(F)F)(F)F","-","-","AUTO_507","C1051_A0048","A133072","-","-","-","-","-","387.0","Celsius","-","-","-","-","387.0","Celsius","-","-","","-",""
"COCC[N+]1(C)CCOCC1.FC(F)(F)[B-](F)(F)F","-","-","AUTO_508","C1051_A0008","A133072","-","-","-","-","-","232.0","Celsius","-","-","-","-","232.0","Celsius","-","-","","-",""
"COCC[N+]1(C)CCOCC1.FC(C(F)(F)F)(F)[B-](F)(F)F","-","-","AUTO_509","C1051_A0043","A133072","-","-","-","-","-","306.0","Celsius","-","-","-","-","306.0","Celsius","-","-","","-",""
"COCC[N+]1(C)CCOCC1.FC(C(F)(F)[B-](F)(F)F)(C(F)(F)F)F","-","-","AUTO_510","C1051_A0009","A133072","-","-","-","-","-","302.0","Celsius","-","-","-","-","302.0","Celsius","-","-","","-",""
"COCC[N+]1(C)CCOCC1.FC(C(C(F)(F)[B-](F)(F)F)(F)F)(C(F)(F)F)F","-","-","AUTO_511","C1051_A0021","A133072","-","-","-","-","-","300.0","Celsius","-","-","-","-","300.0","Celsius","-","-","","-",""
"CN1N=N[NH+]([C@@H]1N)N.O=N(=O)[N-]N(=O)=O","-","-","AUTO_512","C1528_A0063","A133072","-","-","-","-","-","150.0","Celsius","-","-","-","-","150.0","Celsius","-","-","","-",""
"CN1[NH+]=C(N(N1)C)C.Cl(=O)(=O)(=O)[O-]","-","-","AUTO_513","C0420_A0051","A133072","-","-","-","-","-","315.0","Celsius","-","-","-","-","315.0","Celsius","-","-","","-",""
"CN1N=N[N+](=C1C)N.Cl(=O)(=O)(=O)[O-]","-","-","AUTO_514","C0746_A0051","A133072","-","-","-","-","-","182.0","Celsius","-","-","-","-","182.0","Celsius","-","-","","-",""
"CN1N=N[N+](=C1C)N.[N+](=O)([O-])[O-]","-","-","AUTO_515","C0746_A0090","A133072","-","-","-","-","-","170.0","Celsius","-","-","-","-","170.0","Celsius","-","-","","-",""
"CN1NN([NH+]=C1C)N.Cl(=O)(=O)(=O)[O-]","-","-","AUTO_516","C0371_A0051","A133072","-","-","-","-","-","238.0","Celsius","-","-","-","-","238.0","Celsius","-","-","","-",""
"CN1NN([NH+]=C1C)N.[N+](=O)([O-])[O-]","-","-","AUTO_517","C0371_A0090","A133072","-","-","-","-","-","173.0","Celsius","-","-","-","-","173.0","Celsius","-","-","","-",""
"CCC[N@@+]1(C)COCC1.FC(S(=O)(=O)[N-]S(=O)(=O)C(F)(F)F)(F)F","-","-","AUTO_518","C1474_A0048","A133072","-","-","-","-","-","347.0","Celsius","-","-","-","-","347.0","Celsius","-","-","","-",""
"CCC[N@@+]1(C)COCC1.[N+](=O)([O-])[O-]","-","-","AUTO_519","C1474_A0090","A133072","-","-","-","-","-","183.0","Celsius","-","-","-","-","183.0","Celsius","-","-","","-",""
"CCC[N@@+]1(C)COCC1.F[P-](F)(F)(F)(F)F","-","-","AUTO_520","C1474_A0011","A133072","-","-","-","-","-","239.0","Celsius","-","-","-","-","239.0","Celsius","-","-","","-",""
"FCCC[N@@+]1(C)COCC1.Cl(=O)(=O)(=O)[O-]","-","-","AUTO_521","C1458_A0051","A133072","-","-","-","-","-","268.0","Celsius","-","-","-","-","268.0","Celsius","-","-","","-",""
"FCCC[N@@+]1(C)COCC1.FC(S(=O)(=O)[N-]S(=O)(=O)C(F)(F)F)(F)F","-","-","AUTO_522","C1458_A0048","A133072","-","-","-","-","-","330.0","Celsius","-","-","-","-","330.0","Celsius","-","-","","-",""
"FCCC[N@@+]1(C)COCC1.[N+](=O)([O-])[O-]","-","-","AUTO_523","C1458_A0090","A133072","-","-","-","-","-","245.0","Celsius","-","-","-","-","245.0","Celsius","-","-","","-",""
"FCCC[N@@+]1(C)COCC1.FC(S(=O)(=O)[O-])(F)F","-","-","AUTO_524","C1458_A0084","A133072","-","-","-","-","-","283.0","Celsius","-","-","-","-","283.0","Celsius","-","-","","-",""
"FCCC[N@@+]1(C)COCC1.F[P-](F)(F)(F)(F)F","-","-","AUTO_525","C1458_A0011","A133072","-","-","-","-","-","191.0","Celsius","-","-","-","-","191.0","Celsius","-","-","","-",""
"CCCC[N+]1(C)COCC1.F[B-](F)(F)F","-","-","AUTO_526","C1460_A0020","A133072","-","-","","-","-","322.0","Celsius","-","-","-","-","322.0","Celsius","-","-","","-",""
"CCCC[N+]1(C)COCC1.FC(S(=O)(=O)[N-]S(=O)(=O)C(F)(F)F)(F)F","-","-","AUTO_527","C1460_A0048","A133072","-","-","","-","-","327.0","Celsius","-","-","-","-","327.0","Celsius","-","-","","-",""
"CCCC[N+]1(C)COCC1.FC(F)(F)[B-](F)(F)F","-","-","AUTO_528","C1460_A0008","A133072","-","-","","-","-","238.0","Celsius","-","-","-","-","238.0","Celsius","-","-","","-",""
"CCCC[N+]1(C)COCC1.FC(C(F)(F)F)(F)[B-](F)(F)F","-","-","AUTO_529","C1460_A0043","A133072","-","-","","-","-","292.0","Celsius","-","-","-","-","292.0","Celsius","-","-","","-",""
"CCCC[N+]1(C)COCC1.FC(C(F)(F)[B-](F)(F)F)(C(F)(F)F)F","-","-","AUTO_530","C1460_A0009","A133072","-","-","","-","-","307.0","Celsius","-","-","-","-","307.0","Celsius","-","-","","-",""
"CCCC[N+]1(C)COCC1.FC(C(C(F)(F)[B-](F)(F)F)(F)F)(C(F)(F)F)F","-","-","AUTO_531","C1460_A0021","A133072","-","-","","-","-","275.0","Celsius","-","-","-","-","275.0","Celsius","-","-","","-",""
"CO[C@@H]([N@@+]1(C)COCC1)C.F[B-](F)(F)F","-","-","AUTO_532","C1464_A0020","A133072","-","-","-","-","-","297.0","Celsius","-","-","-","-","297.0","Celsius","-","-","","-",""
"CO[C@@H]([N@@+]1(C)COCC1)C.FC(S(=O)(=O)[N-]S(=O)(=O)C(F)(F)F)(F)F","-","-","AUTO_533","C1464_A0048","A133072","-","-","-","-","-","328.0","Celsius","-","-","-","-","328.0","Celsius","-","-","","-",""
"CO[C@@H]([N@@+]1(C)COCC1)C.FC(F)(F)[B-](F)(F)F","-","-","AUTO_534","C1464_A0008","A133072","-","-","-","-","-","226.0","Celsius","-","-","-","-","226.0","Celsius","-","-","","-",""
"CO[C@@H]([N@@+]1(C)COCC1)C.FC(C(F)(F)F)(F)[B-](F)(F)F","-","-","AUTO_535","C1464_A0043","A133072","-","-","-","-","-","293.0","Celsius","-","-","-","-","293.0","Celsius","-","-","","-",""
"CO[C@@H]([N@@+]1(C)COCC1)C.FC(C(F)(F)[B-](F)(F)F)(C(F)(F)F)F","-","-","AUTO_536","C1464_A0009","A133072","-","-","-","-","-","293.0","Celsius","-","-","-","-","293.0","Celsius","-","-","","-",""
"CO[C@@H]([N@@+]1(C)COCC1)C.FC(C(C(F)(F)[B-](F)(F)F)(F)F)(C(F)(F)F)F","-","-","AUTO_537","C1464_A0021","A133072","-","-","-","-","-","270.0","Celsius","-","-","-","-","270.0","Celsius","-","-","","-",""
"FC(C(S(F)(F)(F)(F)F)(F)F)(CC[N+]1=CC=CC=N1)F.FC(S(=O)(=O)[N-]S(=O)(=O)C(F)(F)F)(F)F","-","-","AUTO_538","C0675_A0048","A133072","-","-","-","-","-","300.0","Celsius","-","-","-","-","300.0","Celsius","-","-","","-",""
"FC(S(F)(F)(F)(F)F)(C(CCCC[N+]1=CC=CC=N1)(F)F)F.FC(S(=O)(=O)[N-]S(=O)(=O)C(F)(F)F)(F)F","-","-","AUTO_539","C1410_A0048","A133072","-","-","-","-","-","300.0","Celsius","-","-","-","-","300.0","Celsius","-","-","","-",""
"CC1(C)N=C[NH+]=C1.FC(F)(F)C(=O)[CH-]C(=O)C(F)(F)F","-","-","AUTO_540","C1414_A0010","A133072","-","-","-","-","-","215.0","Celsius","-","-","-","-","215.0","Celsius","-","-","","-",""
"OC(=O)C[NH3+].[N+](=O)([O-])[O-]","-","-","AUTO_541","C0778_A0090","A133072","-","-","-","-","-","192.0","Celsius","-","-","-","-","192.0","Celsius","-","-","","-",""
"OC(=O)C[NH3+].[Cl-]","-","-","AUTO_542","C0778_A0033","A133072","-","-","-","-","-","195.0","Celsius","-","-","-","-","195.0","Celsius","-","-","","-",""
"OC(=O)C[NH3+].F[B-](F)(F)F","-","-","AUTO_543","C0778_A0020","A133072","-","-","-","-","-","220.0","Celsius","-","-","-","-","220.0","Celsius","-","-","","-",""
"OC(=O)C[NH3+].F[P-](F)(F)(F)(F)F","-","-","AUTO_544","C0778_A0011","A133072","-","-","-","-","-","157.0","Celsius","-","-","-","-","157.0","Celsius","-","-","","-",""
"C[C@H]([NH3+])C(=O)O.F[B-](F)(F)F","-","-","AUTO_545","C0784_A0020","A133072","-","-","-","-","-","241.0","Celsius","-","-","-","-","241.0","Celsius","-","-","","-",""
"C[C@H]([NH3+])C(=O)O.[N+](=O)([O-])[O-]","-","-","AUTO_546","C0784_A0090","A133072","-","-","-","-","-","168.0","Celsius","-","-","-","-","168.0","Celsius","-","-","","-",""
"C[C@H]([NH3+])C(=O)O.FC(C(=O)[O-])(F)F","-","-","AUTO_547","C0784_A0064","A133072","-","-","-","-","-","119.0","Celsius","-","-","-","-","119.0","Celsius","-","-","","-",""
"C[C@H]([NH3+])C(=O)O.F[P-](F)(F)(F)(F)F","-","-","AUTO_548","C0784_A0011","A133072","-","-","-","-","-","176.0","Celsius","-","-","-","-","176.0","Celsius","-","-","","-",""
"C[C@H]([C@@H](C(=O)O)[NH3+])O.[N+](=O)([O-])[O-]","-","-","AUTO_549","C1487_A0090","A133072","-","-","-","-","-","147.0","Celsius","-","-","-","-","147.0","Celsius","-","-","","-",""
"OC(=O)[C@@H]1CCC[NH2+]1.F[B-](F)(F)F","-","-","AUTO_550","C0474_A0020","A133072","-","-","-","-","-","236.0","Celsius","-","-","-","-","236.0","Celsius","-","-","","-",""
"OC(=O)[C@@H]1CCC[NH2+]1.[N+](=O)([O-])[O-]","-","-","AUTO_551","C0474_A0090","A133072","-","-","-","-","-","138.0","Celsius","-","-","-","-","138.0","Celsius","-","-","","-",""
"OC(=O)[C@@H]1CCC[NH2+]1.F[P-](F)(F)(F)(F)F","-","-","AUTO_552","C0474_A0011","A133072","-","-","-","-","-","168.0","Celsius","-","-","-","-","168.0","Celsius","-","-","","-",""
"OC(=O)[C@@H]1CCC[NH2+]1.FC(C(=O)[O-])(F)F","-","-","AUTO_553","C0474_A0064","A133072","-","-","-","-","-","192.0","Celsius","-","-","-","-","192.0","Celsius","-","-","","-",""
"[NH3+][C@H](C(=O)O)C(C)C.[N+](=O)([O-])[O-]","-","-","AUTO_554","C0251_A0090","A133072","-","-","-","-","-","169.0","Celsius","-","-","-","-","169.0","Celsius","-","-","","-",""
"CC[C@@H]([C@@H](C(=O)O)[NH3+])C.[N+](=O)([O-])[O-]","-","-","AUTO_555","C0023_A0090","A133072","-","-","-","-","-","167.0","Celsius","-","-","-","-","167.0","Celsius","-","-","","-",""
"COC(=O)C[NH3+].[N+](=O)([O-])[O-]","-","-","AUTO_556","C0491_A0090","A133072","-","-","-","-","-","178.0","Celsius","-","-","-","-","178.0","Celsius","-","-","","-",""
"CCOC(=O)C[NH3+].[N+](=O)([O-])[O-]","-","-","AUTO_557","C0914_A0090","A133072","-","-","-","-","-","182.0","Celsius","-","-","-","-","182.0","Celsius","-","-","","-",""
"COC(=O)[C@H]([NH3+])C.F[B-](F)(F)F","-","-","AUTO_558","C1484_A0020","A133072","-","-","-","-","-","230.0","Celsius","-","-","-","-","230.0","Celsius","-","-","","-",""
"COC(=O)[C@H]([NH3+])C.[N+](=O)([O-])[O-]","-","-","AUTO_559","C1484_A0090","A133072","-","-","-","-","-","186.0","Celsius","-","-","-","-","186.0","Celsius","-","-","","-",""
"COC(=O)[C@H]([NH3+])C.CC1=CC(=O)[N-]S(=O)(=O)O1","-","-","AUTO_560","C1484_A0049","A133072","-","-","-","-","-","172.0","Celsius","-","-","-","-","172.0","Celsius","-","-","","-",""
"COC(=O)[C@H]([NH3+])C.F[P-](F)(F)(F)(F)F","-","-","AUTO_561","C1484_A0011","A133072","-","-","-","-","-","209.0","Celsius","-","-","-","-","209.0","Celsius","-","-","","-",""
"COC(=O)[C@H]([NH3+])C.[S-]C#N","-","-","AUTO_562","C1484_A0015","A133072","-","-","-","-","-","139.0","Celsius","-","-","-","-","139.0","Celsius","-","-","","-",""
"COC(=O)[C@@H]([NH3+])CO.[N+](=O)([O-])[O-]","-","-","AUTO_563","C1480_A0090","A133072","-","-","-","-","-","179.0","Celsius","-","-","-","-","179.0","Celsius","-","-","","-",""
"CC[NH2+][C@@H](C(=O)OCC)C.[N+](=O)([O-])[O-]","-","-","AUTO_564","C1477_A0090","A133072","-","-","-","-","-","187.0","Celsius","-","-","-","-","187.0","Celsius","-","-","","-",""
"COC(=O)[C@H]([C@H](O)C)[NH3+].[N+](=O)([O-])[O-]","-","-","AUTO_565","C1479_A0090","A133072","-","-","-","-","-","156.0","Celsius","-","-","-","-","156.0","Celsius","-","-","","-",""
"COC(=O)[C@@H]1CCC[NH2+]1.F[B-](F)(F)F","-","-","AUTO_566","C1485_A0020","A133072","-","-","-","-","-","234.0","Celsius","-","-","-","-","234.0","Celsius","-","-","","-",""
"COC(=O)[C@@H]1CCC[NH2+]1.[N+](=O)([O-])[O-]","-","-","AUTO_567","C1485_A0090","A133072","-","-","-","-","-","159.0","Celsius","-","-","-","-","159.0","Celsius","-","-","","-",""
"COC(=O)[C@@H]1CCC[NH2+]1.F[P-](F)(F)(F)(F)F","-","-","AUTO_568","C1485_A0011","A133072","-","-","-","-","-","221.0","Celsius","-","-","-","-","221.0","Celsius","-","-","","-",""
"COC(=O)[C@H](C(C)C)[NH3+].[N+](=O)([O-])[O-]","-","-","AUTO_569","C1483_A0090","A133072","-","-","-","-","-","195.0","Celsius","-","-","-","-","195.0","Celsius","-","-","","-",""
"CCOC(=O)[C@@H]1CCC[NH2+]1.[N+](=O)([O-])[O-]","-","-","AUTO_570","C1478_A0090","A133072","-","-","-","-","-","183.0","Celsius","-","-","-","-","183.0","Celsius","-","-","","-",""
"CC[C@H]([C@@H](C(=O)OC)[NH3+])C.[N+](=O)([O-])[O-]","-","-","AUTO_571","C1482_A0090","A133072","-","-","-","-","-","172.0","Celsius","-","-","-","-","172.0","Celsius","-","-","","-",""
"[NH3+][C@H](C(=O)O)CC(C)C.[N+](=O)([O-])[O-]","-","-","AUTO_572","C0508_A0090","A133072","-","-","-","-","-","210.0","Celsius","-","-","-","-","210.0","Celsius","-","-","","-",""
"COC(=O)[C@H](CC1=CC=CC=C1)[NH3+].[N+](=O)([O-])[O-]","-","-","AUTO_573","C1481_A0090","A133072","-","-","-","-","-","224.0","Celsius","-","-","-","-","224.0","Celsius","-","-","","-",""
"C1=NC=C[NH2+]1.F[B-](F)(F)F","-","-","AUTO_574","C1447_A0020","A133072","-","-","-","-","-","363.0","Celsius","-","-","-","-","363.0","Celsius","-","-","","-",""