"SMILES","CASRN","EXTERNALID","N","NAME","ARTICLEID","PUBMEDID","PAGE","TABLE","Melting Point","UNIT {Melting Point}","Decomposition","UNIT {Decomposition}","Glass-transition temperature (Tg)","UNIT {Glass-transition temperature (Tg)}","Melting Point {measured, converted}","UNIT {Melting Point}","Decomposition {measured, converted}","UNIT {Decomposition}","Glass-transition temperature (Tg) {measured, converted}","UNIT {Glass-transition temperature (Tg)}","weight loss","UNIT {weight loss}","Solvent"
"N[N+]=1N=NNC1N.[O-]Cl(=O)(=O)=O","-","-","AUTO_1985","C2045_A0051","A132065","-","-","-","128.0","Celsius","-","-","-","-","128.0","Celsius","-","-","-","-","","-",""
"C[NH+]1C=CN(C1)CCCC2=CC=CC=C2.F[P-](F)(F)(F)(F)F","-","-","AUTO_1986","C2046_A0011","A132065","-","-","-","52.0","Celsius","-","-","-","-","52.0","Celsius","-","-","-","-","","-",""
"C[NH+]1C=CN(C1)CCC2=CC=CC=C2.C(F)(F)(F)S(=O)(=O)[N-]S(=O)(=O)C(F)(F)F","-","-","AUTO_1987","C2047_A0048","A132065","-","-","-","37.0","Celsius","-","-","-","-","37.0","Celsius","-","-","-","-","","-",""
"C[NH+]1C=CN(C1)CCCC2=CC=CC=C2.C(F)(F)(F)S(=O)(=O)[N-]S(=O)(=O)C(F)(F)F","-","-","AUTO_1988","C2046_A0048","A132065","-","-","-","48.0","Celsius","-","-","-","-","48.0","Celsius","-","-","-","-","","-",""
"C[NH+]1C=CN(C1)CCC2=CC=CC=C2.F[P-](F)(F)(F)(F)F","-","-","AUTO_1989","C2047_A0011","A132065","-","-","-","103.0","Celsius","-","-","-","-","103.0","Celsius","-","-","-","-","","-",""
"CCCC[N+]=1C=CN(C1)C.COS(=O)(=O)[O-]","-","-","AUTO_1990","C0505_A0044","A132065","-","-","-","-4.0","Celsius","-","-","-","-","-4.0","Celsius","-","-","-","-","","-",""
"CN1C(=[N+](N=N1)N)N.[N+](=O)([O-])[O-]","-","-","AUTO_1991","C0961_A0090","A132065","-","-","-","121.0","Celsius","-","-","-","-","121.0","Celsius","-","-","-","-","","-",""
"CCCC[N+]1(C)CCCC1.C(C(F)(F)[P-](C(C(F)(F)F)(F)F)(C(C(F)(F)F)(F)F)(F)(F)F)(F)(F)F","-","-","AUTO_1992","C0315_A0071","A132065","-","-","-","4.0","Celsius","-","-","-","-","4.0","Celsius","-","-","-","-","","-",""
"CCN1C=C[N+](=C1C)C.C(F)(F)(F)S(=O)(=O)[N-]S(=O)(=O)C(F)(F)F","-","-","AUTO_1993","C0162_A0048","A132065","-","-","-","25.0","Celsius","-","-","-","-","25.0","Celsius","-","-","-","-","","-",""
"CN(C(=[NH2+])N(C)C)C.FC(C(=O)[O-])(F)F","-","-","AUTO_1994","C1490_A0064","A132065","-","-","-","42.0","Celsius","-","-","-","-","42.0","Celsius","-","-","-","-","","-",""
"CN(C(=[NH2+])N(C)C)C.FC(S(=O)(=O)[O-])(F)F","-","-","AUTO_1995","C1490_A0084","A132065","-","-","-","41.0","Celsius","-","-","-","-","41.0","Celsius","-","-","-","-","","-",""
"CN(C(=[NH2+])N(C)C)C.OC(C(=O)[O-])C","-","-","AUTO_1996","C1490_A0121","A132065","-","-","-","-50.0","Celsius","-","-","-","-","-50.0","Celsius","-","-","-","-","","-",""
"C(CCC)[P+](CCCC)(CCCC)CCCC.N[C@H](C(=O)[O-])C(C)C","-","-","AUTO_1997","C1199_A0260","A132065","-","-","-","26.0","Celsius","-","-","-","-","26.0","Celsius","-","-","-","-","","-",""
"CC[N+](CC)(CC)C.COS(=O)(=O)[O-]","-","-","AUTO_1998","C0597_A0044","A132065","-","-","-","33.0","Celsius","-","-","-","-","33.0","Celsius","-","-","-","-","","-",""
"CCCC[N+]1(CC)CCCC1.C(C)OS(=O)(=O)[O-]","-","-","AUTO_1999","C1758_A0083","A132065","-","-","-","53.0","Celsius","-","-","-","-","53.0","Celsius","-","-","-","-","","-",""
"CC[N+]1(C)CCCC1.C(C)OS(=O)(=O)[O-]","-","-","AUTO_2000","C0876_A0083","A132065","-","-","-","25.0","Celsius","-","-","-","-","25.0","Celsius","-","-","-","-","","-",""
"CC[NH2+]CC.S(=O)(=O)(O)[O-]","-","-","AUTO_2001","C1166_A0017","A132065","-","-","-","81.0","Celsius","-","-","-","-","81.0","Celsius","-","-","-","-","","-",""
"C[NH+](C)C.S(=O)(=O)(O)[O-]","-","-","AUTO_2002","C2041_A0017","A132065","-","-","-","129.0","Celsius","-","-","-","-","129.0","Celsius","-","-","-","-","","-",""
"C[NH+](C)C.P(=O)(O)(O)[O-]","-","-","AUTO_2003","C2041_A0012","A132065","-","-","-","116.0","Celsius","-","-","-","-","116.0","Celsius","-","-","-","-","","-",""
"OCC[NH3+].OCC(=O)[O-]","-","-","AUTO_2004","C0449_A0120","A132065","-","-","-","106.0","Celsius","-","-","-","-","106.0","Celsius","-","-","-","-","","-",""
"CCCC[N+]=1C=CN(C1)C.S(=O)(=O)(O)[O-]","-","-","AUTO_2005","C0505_A0017","A132065","-","-","-","29.0","Celsius","-","-","-","-","29.0","Celsius","-","-","-","-","","-",""
"CCCCCCCC[N+]=1C=CN(C1)C.C(F)(F)(F)S(=O)(=O)[N-]S(=O)(=O)C(F)(F)F","-","-","AUTO_2006","C0290_A0048","A132065","-","-","-","-23.0","Celsius","-","-","-","-","-23.0","Celsius","-","-","-","-","","-",""
"C[NH2+]C.F[B-](F)(F)F","-","-","AUTO_2007","C1428_A0020","A132065","-","-","-","102.0","Celsius","-","-","-","-","102.0","Celsius","-","-","-","-","","-",""
"CCCC[N+]=1C=CN(C1C)C.[Cl-]","-","-","AUTO_2008","C1098_A0033","A132065","-","-","-","93.0","Celsius","-","-","-","-","93.0","Celsius","-","-","-","-","","-",""
"CCC[N+](CCC)(CCC)C.C(F)(F)(F)S(=O)(=O)[N-]S(=O)(=O)C(F)(F)F","-","-","AUTO_2009","C1867_A0048","A132065","-","-","-","46.0","Celsius","-","-","-","-","46.0","Celsius","-","-","-","-","","-",""
"CCC[NH+]1C(=CC(N1C)C)C.C(F)(F)(F)S(=O)(=O)[N-]S(=O)(=O)C(F)(F)F","-","-","AUTO_2010","C2049_A0048","A132065","-","-","-","17.0","Celsius","-","-","-","-","17.0","Celsius","-","-","-","-","","-",""
"CC[NH+]1C=CN(C1)C.[Al-](Cl)(Cl)(Cl)Cl","-","-","AUTO_2011","C2050_A0085","A132065","-","-","-","6.0","Celsius","-","-","-","-","6.0","Celsius","-","-","-","-","","-",""
"C[NH+](N)C.[N-]=[N+]=[N-]","-","-","AUTO_2012","C2051_A0073","A132065","-","-","-","38.0","Celsius","-","-","-","-","38.0","Celsius","-","-","-","-","","-",""
"CCCC[N+]1(C)CCCC1.C(#N)[B-](C#N)(C#N)C#N","-","-","AUTO_2013","C0315_A0117","A132065","-","-","-","20.0","Celsius","-","-","-","-","20.0","Celsius","-","-","-","-","","-",""
"CC[NH+]1C=CN(C1)C.C(#N)[C-](C#N)C#N","-","-","AUTO_2014","C2050_A0055","A132065","-","-","-","-9.0","Celsius","-","-","-","-","-9.0","Celsius","-","-","-","-","","-",""
"CCCC[N+]1(C)CCCC1.C(#N)[C-](C#N)C#N","-","-","AUTO_2015","C0315_A0055","A132065","-","-","-","-7.0","Celsius","-","-","-","-","-7.0","Celsius","-","-","-","-","","-",""
"C(C)[N+](CC)(CC)CCCCCCCC.F[Sb-](F)(F)(F)(F)F","-","-","AUTO_2016","C1226_A0346","A132065","-","-","-","74.0","Celsius","-","-","-","-","74.0","Celsius","-","-","-","-","","-",""
"CC[N+]1=CC=CC=C1.C(F)(F)(F)S(=O)(=O)[N-]S(=O)(=O)C(F)(F)F","-","-","AUTO_2017","C0062_A0048","A132065","-","-","-","30.0","Celsius","-","-","-","-","30.0","Celsius","-","-","-","-","","-",""
"C(CCCC)[N+]1=CC=CC=C1.C(F)(F)(F)S(=O)(=O)[N-]S(=O)(=O)C(F)(F)F","-","-","AUTO_2018","C1324_A0048","A132065","-","-","-","0.0","Celsius","-","-","-","-","0.0","Celsius","-","-","-","-","","-",""
"CC[N+]1=CC=CC=C1.C(#N)[N-]C#N","-","-","AUTO_2019","C0062_A0056","A132065","-","-","-","-33.0","Celsius","-","-","-","-","-33.0","Celsius","-","-","-","-","","-",""
"CCC[N+]1=CC=CC=C1.C(#N)[N-]C#N","-","-","AUTO_2020","C0203_A0056","A132065","-","-","-","3.0","Celsius","-","-","-","-","3.0","Celsius","-","-","-","-","","-",""
"CCCCC[N+]1(C)CCCC1.C(F)(F)(F)S(=O)(=O)[N-]S(=O)(=O)C(F)(F)F","-","-","AUTO_2021","C0397_A0048","A132065","-","-","-","8.0","Celsius","-","-","-","-","8.0","Celsius","-","-","-","-","","-",""
"CCCCCC[N+]1(C)CCCC1.C(F)(F)(F)S(=O)(=O)[N-]S(=O)(=O)C(F)(F)F","-","-","AUTO_2022","C0821_A0048","A132065","-","-","-","3.0","Celsius","-","-","-","-","3.0","Celsius","-","-","-","-","","-",""
"C(C)[N+](CC)(CC)CCCCCCCC.C(F)(F)(F)S(=O)(=O)[N-]S(=O)(=O)C(F)(F)F","-","-","AUTO_2023","C1226_A0048","A132065","-","-","-","14.0","Celsius","-","-","-","-","14.0","Celsius","-","-","-","-","","-",""
"COCC[N+]1(C)CCCC1.C(C(F)(F)[P-](C(C(F)(F)F)(F)F)(C(C(F)(F)F)(F)F)(F)(F)F)(F)(F)F","-","-","AUTO_2024","C0141_A0071","A132065","-","-","-","0.0","Celsius","-","-","-","-","0.0","Celsius","-","-","-","-","","-",""
"CCCCCC[N+]12CCN(CC1)CC2.C(F)(F)(F)S(=O)(=O)[N-]S(=O)(=O)C(F)(F)F","-","-","AUTO_2025","C2054_A0048","A132065","-","-","-","36.0","Celsius","-","-","-","-","36.0","Celsius","-","-","-","-","","-",""
"C(C)[N+](C)(C)CCO.C(F)(F)(F)S(=O)(=O)[N-]S(=O)(=O)C(F)(F)F","-","-","AUTO_2026","C1306_A0048","A132065","-","-","-","6.0","Celsius","-","-","-","-","6.0","Celsius","-","-","-","-","","-",""
"OCC[N+](C)(C)C.[O-]C(=O)C(C)(C)C","-","-","AUTO_2027","C0482_A0161","A132065","-","-","-","96.0","Celsius","-","-","-","-","96.0","Celsius","-","-","-","-","","-",""
"CCCCCC=CCC=CCCCCCCCCN1C=C[NH+](C1)C.C(F)(F)(F)S(=O)(=O)[N-]S(=O)(=O)C(F)(F)F","-","-","AUTO_2028","C2055_A0048","A132065","-","-","-","-47.0","Celsius","-","-","-","-","-47.0","Celsius","-","-","-","-","","-",""
"CCCCCCCC/C=C/CCCCCCCCN1C=C[NH+](C1)C.C(F)(F)(F)S(=O)(=O)[N-]S(=O)(=O)C(F)(F)F","-","-","AUTO_2029","C2056_A0048","A132065","-","-","-","16.0","Celsius","-","-","-","-","16.0","Celsius","-","-","-","-","","-",""
"C[N+]1=CN(C=C1)CCCCCCCCC=CCCCCCCCC.C(F)(F)(F)S(=O)(=O)[N-]S(=O)(=O)C(F)(F)F","-","-","AUTO_2030","C2025_A0048","A132065","-","-","-","-21.0","Celsius","-","-","-","-","-21.0","Celsius","-","-","-","-","","-",""
"CCCC1=CC=C[N+](=C1)C.F[P-](F)(F)(F)(F)F","-","-","AUTO_2031","C2058_A0011","A132065","-","-","-","38.0","Celsius","-","-","-","-","38.0","Celsius","-","-","-","-","","-",""
"CCC[N+]1(C)CCCC1.F[P-](F)(F)(F)(F)F","-","-","AUTO_2032","C0152_A0011","A132065","-","-","-","110.0","Celsius","-","-","-","-","110.0","Celsius","-","-","-","-","","-",""
"CC[N+]=1C=CN(C1)C.F[As-](F)(F)(F)(F)F","-","-","AUTO_2034","C0460_A0348","A132065","-","-","-","53.0","Celsius","-","-","-","-","53.0","Celsius","-","-","-","-","","-",""
"CC[NH+]1C=CN(C1)C.[C-](S(=O)(=O)C(F)(F)F)(S(=O)(=O)C(F)(F)F)S(=O)(=O)C(F)(F)F","-","-","AUTO_2035","C2050_A0003","A132065","-","-","-","39.0","Celsius","-","-","-","-","39.0","Celsius","-","-","-","-","","-",""
"CCCN1C=C[N+](=C1C)C.[Cl-]","-","-","AUTO_2036","C0052_A0033","A132065","-","-","-","138.0","Celsius","-","-","-","-","138.0","Celsius","-","-","-","-","","-",""
"CCCCCC[N+]1=CC=C2C(=C1)C=CC=C2.C(F)(F)(F)S(=O)(=O)[N-]S(=O)(=O)C(F)(F)F","-","-","AUTO_2037","C1757_A0048","A132065","-","-","-","55.0","Celsius","-","-","-","-","55.0","Celsius","-","-","-","-","","-",""
"N#CCN1C=C[N+](=C1)C.N#CC=1N=C([N-]C1C#N)C(F)(F)F","-","-","AUTO_2038","C0448_A0230","A132065","-","-","-","93.0","Celsius","-","-","-","-","93.0","Celsius","-","-","-","-","","-",""
"CCN1C(C)=CC(=[N+]1C2=CC=CC=C2)C.S(C)(=O)(=O)[O-]","-","-","AUTO_2039","C2059_A0054","A132065","-","-","-","122.0","Celsius","-","-","-","-","122.0","Celsius","-","-","-","-","","-",""
"CCCCN1C(C)=CC(=[N+]1C2=CC=CC=C2)C.F[B-](F)(F)F","-","-","AUTO_2040","C2060_A0020","A132065","-","-","-","68.0","Celsius","-","-","-","-","68.0","Celsius","-","-","-","-","","-",""
"CCCN1C(C)=CC(=[N+]1C2=CC=CC=C2)C.S(C)(=O)(=O)[O-]","-","-","AUTO_2041","C2061_A0054","A132065","-","-","-","92.0","Celsius","-","-","-","-","92.0","Celsius","-","-","-","-","","-",""
"CC1=CC(=[N+](N1C)C2=CC=CC=C2)C.F[B-](F)(F)F","-","-","AUTO_2042","C2062_A0020","A132065","-","-","-","145.0","Celsius","-","-","-","-","145.0","Celsius","-","-","-","-","","-",""
"CCCN1C(C)=CC(=[N+]1C2=CC=CC=C2)C.F[B-](F)(F)F","-","-","AUTO_2043","C2061_A0020","A132065","-","-","-","80.0","Celsius","-","-","-","-","80.0","Celsius","-","-","-","-","","-",""
"CCN1C(C)=CC(=[N+]1C2=CC=CC=C2)C.F[B-](F)(F)F","-","-","AUTO_2044","C2059_A0020","A132065","-","-","-","113.0","Celsius","-","-","-","-","113.0","Celsius","-","-","-","-","","-",""
"CCCCCCCCCC[N+](CCCCCCCCCC)(CC)CC.[Br-]","-","-","AUTO_2045","C2063_A0004","A132065","-","-","-","45.0","Celsius","-","-","-","-","45.0","Celsius","-","-","-","-","","-",""
"CCCCCCCCCCCC[N+](C)(C)C.[Br-]","-","-","AUTO_2046","C2064_A0004","A132065","-","-","-","265.0","Celsius","-","-","-","-","265.0","Celsius","-","-","-","-","","-",""
"CCCCCCCCCCCCCCCC[N+](C)(C)C.[Br-]","-","-","AUTO_2047","C2022_A0004","A132065","-","-","-","247.0","Celsius","-","-","-","-","247.0","Celsius","-","-","-","-","","-",""
"CCCC[N+]1=CC=C(C=C1)C.FC(C(C(C(F)(F)F)(F)F)(F)F)(S(=O)(=O)[O-])F","-","-","AUTO_2048","C0845_A0079","A132065","-","-","-","70.0","Celsius","-","-","-","-","70.0","Celsius","-","-","-","-","","-",""
"CCCC[N+]1=CC=C(C=C1)C.FC(S(=O)(=O)[O-])(F)F","-","-","AUTO_2049","C0845_A0084","A132065","-","-","-","38.0","Celsius","-","-","-","-","38.0","Celsius","-","-","-","-","","-",""
"CCCCCCCC[N+]=1C=CN(C1)C.FC(C(C(C(F)(F)F)(F)F)(F)F)(S(=O)(=O)[O-])F","-","-","AUTO_2050","C0290_A0079","A132065","-","-","-","32.0","Celsius","-","-","-","-","32.0","Celsius","-","-","-","-","","-",""
"CCCCCCCC[N+]=1C=CN(C1)C.FC(S(=O)(=O)[O-])(F)F","-","-","AUTO_2051","C0290_A0084","A132065","-","-","-","5.0","Celsius","-","-","-","-","5.0","Celsius","-","-","-","-","","-",""
"CCCCCCCC[N+]=1C=CN(C1)C.C(#N)[N-]C#N","-","-","AUTO_2052","C0290_A0056","A132065","-","-","-","-5.0","Celsius","-","-","-","-","-5.0","Celsius","-","-","-","-","","-",""
"CCCCCCCC[N+]1=CC(CC)=CC=C1C.[I-]","-","-","AUTO_2053","C2065_A0069","A132065","-","-","-","87.0","Celsius","-","-","-","-","87.0","Celsius","-","-","-","-","","-",""
"CCCC[N+]1=CC(C)=CC(=C1)C.FC(S(=O)(=O)[O-])(F)F","-","-","AUTO_2054","C1087_A0084","A132065","-","-","-","91.0","Celsius","-","-","-","-","91.0","Celsius","-","-","-","-","","-",""
"CCCCCCCC[N+]1=CC(C)=CC(=C1)C.[I-]","-","-","AUTO_2055","C1600_A0069","A132065","-","-","-","82.0","Celsius","-","-","-","-","82.0","Celsius","-","-","-","-","","-",""
"CCCC[N+]1=CC=CC(=C1C)C.FC(S(=O)(=O)[O-])(F)F","-","-","AUTO_2056","C1602_A0084","A132065","-","-","-","17.0","Celsius","-","-","-","-","17.0","Celsius","-","-","-","-","","-",""
"CCCC[N+]1=CC(C)=CC(=C1C)C.FC(S(=O)(=O)[O-])(F)F","-","-","AUTO_2057","C2066_A0084","A132065","-","-","-","74.0","Celsius","-","-","-","-","74.0","Celsius","-","-","-","-","","-",""
"CCCCCCCC[N+]1=CC(C)=CC(=C1)C.FC(S(=O)(=O)[O-])(F)F","-","-","AUTO_2058","C1600_A0084","A132065","-","-","-","76.0","Celsius","-","-","-","-","76.0","Celsius","-","-","-","-","","-",""
"CCCC[N+]1=CC(C)=CC(=C1)C.C(#N)[N-]C#N","-","-","AUTO_2059","C1087_A0056","A132065","-","-","-","-1.0","Celsius","-","-","-","-","-1.0","Celsius","-","-","-","-","","-",""
"CCCCCCCC[N+]1=CC(CC)=CC=C1C.C(#N)[N-]C#N","-","-","AUTO_2060","C2065_A0056","A132065","-","-","-","53.0","Celsius","-","-","-","-","53.0","Celsius","-","-","-","-","","-",""
"CCCC[N+]1=CC(C)=CC(=C1)C.[S-]C#N","-","-","AUTO_2061","C1087_A0015","A132065","-","-","-","13.0","Celsius","-","-","-","-","13.0","Celsius","-","-","-","-","","-",""
"CCCCCCCC[N+]1=CC(C)=CC(=C1)C.[S-]C#N","-","-","AUTO_2062","C1600_A0015","A132065","-","-","-","-38.0","Celsius","-","-","-","-","-38.0","Celsius","-","-","-","-","","-",""
"CCCCCCCC[N+]1=CC(C)=CC(=C1C)C.[S-]C#N","-","-","AUTO_2063","C2067_A0015","A132065","-","-","-","20.0","Celsius","-","-","-","-","20.0","Celsius","-","-","-","-","","-",""
"CCCCCCCC[N+]1=CC(C)=CC(=C1)C.F[B-](F)(F)F","-","-","AUTO_2064","C1600_A0020","A132065","-","-","-","56.0","Celsius","-","-","-","-","56.0","Celsius","-","-","-","-","","-",""
"CCCCCCCCCCCC[N+]1=CC=CC(=C1)C.[Cl-]","-","-","AUTO_2065","C1109_A0033","A132065","-","-","-","87.0","Celsius","-","-","-","-","87.0","Celsius","-","-","-","-","","-",""
"CC=1C=[N+](C=CC1)CCCCCCCC.[Cl-]","-","-","AUTO_2066","C1323_A0033","A132065","-","-","-","79.0","Celsius","-","-","-","-","79.0","Celsius","-","-","-","-","","-",""
"C(CCC)[N+]1=CC(=CC=C1)C.[Cl-]","-","-","AUTO_2067","C1289_A0033","A132065","-","-","-","111.0","Celsius","-","-","-","-","111.0","Celsius","-","-","-","-","","-",""
"CCCCCCCCCC[N+]1=CC=CC(=C1)C.[Cl-]","-","-","AUTO_2068","C2068_A0033","A132065","-","-","-","76.0","Celsius","-","-","-","-","76.0","Celsius","-","-","-","-","","-",""
"CCCCCCCCCCCCCCCCCC[N+]1=CC=CC(=C1)C.[Cl-]","-","-","AUTO_2069","C0844_A0033","A132065","-","-","-","112.0","Celsius","-","-","-","-","112.0","Celsius","-","-","-","-","","-",""
"CCCCCCCCCCCCCCCC[N+]1=CC=CC(=C1)C.[Cl-]","-","-","AUTO_2070","C0701_A0033","A132065","-","-","-","110.0","Celsius","-","-","-","-","110.0","Celsius","-","-","-","-","","-",""
"CCCCCCCCCCCCCC[N+]1=CC=CC(=C1)C.[Cl-]","-","-","AUTO_2071","C0721_A0033","A132065","-","-","-","95.0","Celsius","-","-","-","-","95.0","Celsius","-","-","-","-","","-",""
"CCCCCCOC[N+]1=CC=CC=C1.[O-]S(=O)(=O)NC1CCCCC1","-","-","AUTO_2072","C2069_A0266","A132065","-","-","-","-35.0","Celsius","-","-","-","-","-35.0","Celsius","-","-","-","-","","-",""
"CCCCCCCCCCCCOC[N+]1=CC=CC=C1.[O-]S(=O)(=O)NC1CCCCC1","-","-","AUTO_2073","C2070_A0266","A132065","-","-","-","33.0","Celsius","-","-","-","-","33.0","Celsius","-","-","-","-","","-",""
"CCCCCCCCCCCOC[N+]1=CC=CC=C1.[O-]S(=O)(=O)NC1CCCCC1","-","-","AUTO_2074","C2071_A0266","A132065","-","-","-","24.0","Celsius","-","-","-","-","24.0","Celsius","-","-","-","-","","-",""
"CCCCCCCOC[N+]1=CC=CC=C1.[O-]S(=O)(=O)NC1CCCCC1","-","-","AUTO_2075","C2072_A0266","A132065","-","-","-","-14.0","Celsius","-","-","-","-","-14.0","Celsius","-","-","-","-","","-",""
"CCCCCCCCCOC[N+]1=CC=CC=C1.[O-]S(=O)(=O)NC1CCCCC1","-","-","AUTO_2076","C2073_A0266","A132065","-","-","-","9.0","Celsius","-","-","-","-","9.0","Celsius","-","-","-","-","","-",""
"CCCCCCCCCCCC[N+]1=CC=CC=C1.[O-]S(=O)(=O)NC1CCCCC1","-","-","AUTO_2077","C0527_A0266","A132065","-","-","-","115.0","Celsius","-","-","-","-","115.0","Celsius","-","-","-","-","","-",""
"CCCCCCCCCCCCCCCC[N+]1=CC=CC=C1.[O-]S(=O)(=O)NC1CCCCC1","-","-","AUTO_2078","C0428_A0266","A132065","-","-","-","105.0","Celsius","-","-","-","-","105.0","Celsius","-","-","-","-","","-",""
"CCCCCCCCCC[N+](CCCCCCCCCC)(C)C.[O-]S(=O)(=O)NC1CCCCC1","-","-","AUTO_2079","C0514_A0266","A132065","-","-","-","50.0","Celsius","-","-","-","-","50.0","Celsius","-","-","-","-","","-",""
"CCCC[NH+]1C=CN(C1)C.[O-]S(=O)(=O)NC1CCCCC1","-","-","AUTO_2080","C2074_A0266","A132065","-","-","-","72.0","Celsius","-","-","-","-","72.0","Celsius","-","-","-","-","","-",""
"CCCC[N+](CCCC)(CCCC)C.COS(=O)(=O)[O-]","-","-","AUTO_2081","C0337_A0044","A132065","-","-","-","62.0","Celsius","-","-","-","-","62.0","Celsius","-","-","-","-","","-",""
"CCCC[P+](C)(CCCC)CCCC.COS(=O)(=O)[O-]","-","-","AUTO_2082","C1196_A0044","A132065","-","-","-","38.0","Celsius","-","-","-","-","38.0","Celsius","-","-","-","-","","-",""
"CCC[N+]1(C)CCCCC1.[Br-]","-","-","AUTO_2083","C0155_A0004","A132065","-","-","-","250.0","Celsius","-","-","-","-","250.0","Celsius","-","-","-","-","","-",""
"CCCC[N+](CCCC)(CCCC)CCCC.S(=O)(=O)(O)[O-]","-","-","AUTO_2085","C0297_A0017","A132065","-","-","-","172.0","Celsius","-","-","-","-","172.0","Celsius","-","-","-","-","","-",""
"CCCCCCC[N+]1=CC=CC(=C1)C.[Cl-]","-","-","AUTO_2086","C2075_A0033","A132065","-","-","-","72.0","Celsius","-","-","-","-","72.0","Celsius","-","-","-","-","","-",""
"CCCCCCCCC[N+]1=CC=CC(=C1)C.[Cl-]","-","-","AUTO_2087","C2076_A0033","A132065","-","-","-","64.0","Celsius","-","-","-","-","64.0","Celsius","-","-","-","-","","-",""
"CCCCC[N+]1=CC=CC(=C1)C.[Cl-]","-","-","AUTO_2088","C2077_A0033","A132065","-","-","-","92.0","Celsius","-","-","-","-","92.0","Celsius","-","-","-","-","","-",""
"CCC[N+]1=CC=CC(=C1)C.[Cl-]","-","-","AUTO_2089","C1541_A0033","A132065","-","-","-","92.0","Celsius","-","-","-","-","92.0","Celsius","-","-","-","-","","-",""
"C(CCCCC)[N+]1=CC(=CC=C1)C.[Cl-]","-","-","AUTO_2090","C1309_A0033","A132065","-","-","-","77.0","Celsius","-","-","-","-","77.0","Celsius","-","-","-","-","","-",""
"C=CC[N+]1=CC=CC(=C1)C.[Cl-]","-","-","AUTO_2091","C2078_A0033","A132065","-","-","-","108.0","Celsius","-","-","-","-","108.0","Celsius","-","-","-","-","","-",""
"CC[N+]1(C)CCCC1.C(F)(F)(F)S(=O)(=O)[N-]S(=O)(=O)C(F)(F)F","-","-","AUTO_2092","C0876_A0048","A132065","-","-","-","91.0","Celsius","-","-","-","-","91.0","Celsius","-","-","-","-","","-",""
"CC[N+]1(C)CCCC1.F[B-](F)(F)F","-","-","AUTO_2093","C0876_A0020","A132065","-","-","-","66.0","Celsius","-","-","-","-","66.0","Celsius","-","-","-","-","","-",""
"CCCC[N+]1(C)CCCC1.[Br-]","-","-","AUTO_2094","C0315_A0004","A132065","-","-","-","204.0","Celsius","-","-","-","-","204.0","Celsius","-","-","-","-","","-",""
"CCCCCCCCCCCCC1=CC=[NH+]C=C1.[I-]","-","-","AUTO_2095","C2079_A0069","A132065","-","-","-","92.0","Celsius","-","-","-","-","92.0","Celsius","-","-","-","-","","-",""