"SMILES","CASRN","EXTERNALID","N","NAME","ARTICLEID","PUBMEDID","PAGE","TABLE","Melting Point","UNIT {Melting Point}","Decomposition","UNIT {Decomposition}","Glass-transition temperature (Tg)","UNIT {Glass-transition temperature (Tg)}","Melting Point {measured, converted}","UNIT {Melting Point}","Decomposition {measured, converted}","UNIT {Decomposition}","Glass-transition temperature (Tg) {measured, converted}","UNIT {Glass-transition temperature (Tg)}","weight loss","UNIT {weight loss}","Solvent"
"C[N+](CCCCC)(CC)C.FC(S(=O)(=O)[N-]S(=O)(=O)C(F)(F)F)(F)F","-","-","AUTO_898","C0471_A0048","A133072","-","-","-","-","-","403.0","Celsius","-","-","-","-","403.0","Celsius","-","-","","-",""
"CCCC[N+](CC)(CC)C.FC(S(=O)(=O)[N-]S(=O)(=O)C(F)(F)F)(F)F","-","-","AUTO_899","C0981_A0048","A133072","-","-","-","-","-","446.0","Celsius","-","-","-","-","446.0","Celsius","-","-","","-",""
"[N+](CCCC(F)(F)F)(CC)(C)CC.FC(S(=O)(=O)[N-]S(=O)(=O)C(F)(F)F)(F)F","-","-","AUTO_900","C0649_A0048","A133072","-","-","-","-","-","420.0","Celsius","-","-","-","-","420.0","Celsius","-","-","","-",""
"CCCCC[N+](CC)(CC)C.FC(S(=O)(=O)[N-]S(=O)(=O)C(F)(F)F)(F)F","-","-","AUTO_901","C1997_A0048","A133072","-","-","-","-","-","445.0","Celsius","-","-","-","-","445.0","Celsius","-","-","","-",""
"CCCC[N+](C)(CCC)CCC.FC(S(=O)(=O)[N-]S(=O)(=O)C(F)(F)F)(F)F","-","-","AUTO_902","C1538_A0048","A133072","-","-","-","-","-","485.0","Celsius","-","-","-","-","485.0","Celsius","-","-","","-",""
"CCCCC[N+](C)(CCC)CCC.FC(S(=O)(=O)[N-]S(=O)(=O)C(F)(F)F)(F)F","-","-","AUTO_903","C1539_A0048","A133072","-","-","-","-","-","433.0","Celsius","-","-","-","-","433.0","Celsius","-","-","","-",""
"CC[N+]=1C=CN(C1)C.FC(S(=O)(=O)[N-]S(=O)(=O)C(F)(F)F)(F)F","-","-","AUTO_904","C0460_A0048","A133072","-","-","-","-","-","414.0","Celsius","-","-","-","-","414.0","Celsius","-","-","","-",""
"CN1C=C[N+](=C1)CC(F)(F)F.FC(S(=O)(=O)[N-]S(=O)(=O)C(F)(F)F)(F)F","-","-","AUTO_905","C1125_A0048","A133072","-","-","-","-","-","417.0","Celsius","-","-","-","-","417.0","Celsius","-","-","","-",""
"CC[N+](CCCCS(=O)(=O)O)(CC)CC.S(=O)(=O)(O)[O-]","-","-","AUTO_906","C1526_A0017","A133072","-","-","-","-","-","314.0","Celsius","-","-","-","-","314.0","Celsius","-","-","","-",""
"CCCC[N+]1=CC=CC=C1C2=CC=CC=N2.FC(S(=O)(=O)[N-]S(=O)(=O)C(F)(F)F)(F)F","-","-","AUTO_907","C1371_A0048","A133072","-","-","-","-","-","308.0","Celsius","-","-","-","-","308.0","Celsius","-","-","","-",""
"C(CCC)[P+](CCCC)(CCCC)CCCC.N1=C[N-]C2=C1C=CC=C2","-","-","AUTO_908","C1199_A0179","A133072","-","-","-","-","-","318.0","Celsius","-","-","-","-","318.0","Celsius","-","-","","-",""
"C(CCC)[P+](CCCC)(CCCC)CCCC.BrC=1C=CC2=C(N=C[N-]2)C1","-","-","AUTO_909","C1199_A0180","A133072","-","-","-","-","-","325.0","Celsius","-","-","-","-","325.0","Celsius","-","-","","-",""
"C(CCC)[P+](CCCC)(CCCC)CCCC.C(#N)C=1[N-]C=CC1","-","-","AUTO_910","C1199_A0182","A133072","-","-","-","-","-","308.0","Celsius","-","-","-","-","308.0","Celsius","-","-","","-",""
"C(CCC)[P+](CCCC)(CCCC)CCCC.FC(C1=N[N-]C=C1)(F)F","-","-","AUTO_911","C1199_A0109","A133072","-","-","-","-","-","278.0","Celsius","-","-","-","-","278.0","Celsius","-","-","","-",""
"CC[P+](CC)(CC)CC.N1=C[N-]C2=C1C=CC=C2","-","-","AUTO_912","C0872_A0179","A133072","-","-","-","-","-","314.0","Celsius","-","-","-","-","314.0","Celsius","-","-","","-",""
"NCC[N+]1=C(N(C=C1)CCN)C.[Br-]","-","-","AUTO_913","C1564_A0004","A133072","-","-","-","-","-","248.0","Celsius","-","-","-","-","248.0","Celsius","-","-","","-",""
"CN(C)P(=[NH+]C(C)(C)C)(N(C)C)N(C)C.FC(S(=O)(=O)[N-]S(=O)(=O)C(F)(F)F)(F)F","-","-","AUTO_914","C1572_A0048","A133072","-","-","-","-","-","324.0","Celsius","-","-","-","-","324.0","Celsius","-","-","","-",""
"CC(C)(C)[NH+]=P(N1CCCC1)(N2CCCC2)N3CCCC3.FC(S(=O)(=O)[N-]S(=O)(=O)C(F)(F)F)(F)F","-","-","AUTO_915","C1573_A0048","A133072","-","-","-","-","-","323.0","Celsius","-","-","-","-","323.0","Celsius","-","-","","-",""
"CN1CCCN(C)P1(=[NH+]C(C)(C)C)N2CCCC2.FC(S(=O)(=O)[N-]S(=O)(=O)C(F)(F)F)(F)F","-","-","AUTO_916","C1574_A0048","A133072","-","-","-","-","-","300.0","Celsius","-","-","-","-","300.0","Celsius","-","-","","-",""
"CN(C)P(=[NH2+])(N(C)C)N(C)C.FC(S(=O)(=O)[N-]S(=O)(=O)C(F)(F)F)(F)F","-","-","AUTO_917","C1571_A0048","A133072","-","-","-","-","-","325.0","Celsius","-","-","-","-","325.0","Celsius","-","-","","-",""
"CC[NH+]=P(N=P(N(C)C)(N(C)C)N(C)C)(N(C)C)N(C)C.FC(S(=O)(=O)[N-]S(=O)(=O)C(F)(F)F)(F)F","-","-","AUTO_918","C1569_A0048","A133072","-","-","-","-","-","347.0","Celsius","-","-","-","-","347.0","Celsius","-","-","","-",""
"CN1CCCN2C1=[NH+]CCC2.FC(S(=O)(=O)[N-]S(=O)(=O)C(F)(F)F)(F)F","-","-","AUTO_919","C1567_A0048","A133072","-","-","-","-","-","379.0","Celsius","-","-","-","-","379.0","Celsius","-","-","","-",""
"C1CNC2=[NH+]CCCN2C1.FC(S(=O)(=O)[N-]S(=O)(=O)C(F)(F)F)(F)F","-","-","AUTO_920","C1570_A0048","A133072","-","-","-","-","-","371.0","Celsius","-","-","-","-","371.0","Celsius","-","-","","-",""
"CN(C(=[NH2+])N(C)C)C.FC(S(=O)(=O)[N-]S(=O)(=O)C(F)(F)F)(F)F","-","-","AUTO_921","C1490_A0048","A133072","-","-","-","-","-","297.0","Celsius","-","-","-","-","297.0","Celsius","-","-","","-",""
"CN(C)P(=[NH+]C(C)(C)C)(N(C)C)N(C)C.FC(F)(F)C(F)(F)S(=O)(=O)[N-]S(=O)(=O)C(F)(F)C(F)(F)F","-","-","AUTO_922","C1572_A0067","A133072","-","-","-","-","-","321.0","Celsius","-","-","-","-","321.0","Celsius","-","-","","-",""
"CC(C)(C)[NH+]=P(N1CCCC1)(N2CCCC2)N3CCCC3.FC(F)(F)C(F)(F)S(=O)(=O)[N-]S(=O)(=O)C(F)(F)C(F)(F)F","-","-","AUTO_923","C1573_A0067","A133072","-","-","-","-","-","322.0","Celsius","-","-","-","-","322.0","Celsius","-","-","","-",""
"CN1CCCN(C)P1(=[NH+]C(C)(C)C)N2CCCC2.FC(F)(F)C(F)(F)S(=O)(=O)[N-]S(=O)(=O)C(F)(F)C(F)(F)F","-","-","AUTO_924","C1574_A0067","A133072","-","-","-","-","-","311.0","Celsius","-","-","-","-","311.0","Celsius","-","-","","-",""
"CN(C)P(=[NH2+])(N(C)C)N(C)C.FC(F)(F)C(F)(F)S(=O)(=O)[N-]S(=O)(=O)C(F)(F)C(F)(F)F","-","-","AUTO_925","C1571_A0067","A133072","-","-","-","-","-","325.0","Celsius","-","-","-","-","325.0","Celsius","-","-","","-",""
"CC[NH+]=P(N=P(N(C)C)(N(C)C)N(C)C)(N(C)C)N(C)C.FC(F)(F)C(F)(F)S(=O)(=O)[N-]S(=O)(=O)C(F)(F)C(F)(F)F","-","-","AUTO_926","C1569_A0067","A133072","-","-","-","-","-","319.0","Celsius","-","-","-","-","319.0","Celsius","-","-","","-",""
"CN1CCCN2C1=[NH+]CCC2.FC(F)(F)C(F)(F)S(=O)(=O)[N-]S(=O)(=O)C(F)(F)C(F)(F)F","-","-","AUTO_927","C1567_A0067","A133072","-","-","-","-","-","383.0","Celsius","-","-","-","-","383.0","Celsius","-","-","","-",""
"C1CNC2=[NH+]CCCN2C1.FC(F)(F)C(F)(F)S(=O)(=O)[N-]S(=O)(=O)C(F)(F)C(F)(F)F","-","-","AUTO_928","C1570_A0067","A133072","-","-","-","-","-","338.0","Celsius","-","-","-","-","338.0","Celsius","-","-","","-",""
"CN(C(=[NH2+])N(C)C)C.FC(F)(F)C(F)(F)S(=O)(=O)[N-]S(=O)(=O)C(F)(F)C(F)(F)F","-","-","AUTO_929","C1490_A0067","A133072","-","-","-","-","-","302.0","Celsius","-","-","-","-","302.0","Celsius","-","-","","-",""
"C1=CN2C=CC=CC2=[NH+]1.[O-]C(=O)CCCCCC(=O)O","-","-","AUTO_930","C1254_A0309","A133072","-","-","-","-","-","175.0","Celsius","-","-","-","-","175.0","Celsius","-","-","","-",""
"C1=CN2C=CC=CC2=[NH+]1.OC(=O)C1=CC=CC=C1C([O-])=O","-","-","AUTO_931","C1254_A0088","A133072","-","-","-","-","-","175.0","Celsius","-","-","-","-","175.0","Celsius","-","-","","-",""
"C1=CN2C=CC=CC2=[NH+]1.C(C(=O)[O-])(=O)O","-","-","AUTO_932","C1254_A0107","A133072","-","-","-","-","-","165.0","Celsius","-","-","-","-","165.0","Celsius","-","-","","-",""
"C1=CN2C=CC=CC2=[NH+]1.S(=O)(=O)(O)[O-]","-","-","AUTO_933","C1254_A0017","A133072","-","-","-","-","-","336.0","Celsius","-","-","-","-","336.0","Celsius","-","-","","-",""
"C1=CN2C=CC=CC2=[NH+]1.SC1=CC=CC=C1[S-]","-","-","AUTO_934","C1254_A0308","A133072","-","-","-","-","-","126.0","Celsius","-","-","-","-","126.0","Celsius","-","-","","-",""
"C1=CN2C=CC=CC2=[NH+]1.SCCSSC1=CC=CC=C1[S-]","-","-","AUTO_935","C1254_A0315","A133072","-","-","-","-","-","260.0","Celsius","-","-","-","-","260.0","Celsius","-","-","","-",""
"NCCC[P+](CCCC)(CCCC)CCCC.[O-]C(=O)[C@@H](N)C","-","-","AUTO_936","C1566_A0134","A133072","-","-","-","-","-","283.0","Celsius","-","-","-","-","283.0","Celsius","-","-","","-",""
"NCCC[P+](CCCC)(CCCC)CCCC.NC(=N)NCCC[C@@H](C(=O)[O-])N","-","-","AUTO_937","C1566_A0251","A133072","-","-","-","-","-","228.0","Celsius","-","-","-","-","228.0","Celsius","-","-","","-",""
"NCCC[P+](CCCC)(CCCC)CCCC.NC(=O)C[C@@H](C(=O)[O-])N","-","-","AUTO_938","C1566_A0252","A133072","-","-","-","-","-","230.0","Celsius","-","-","-","-","230.0","Celsius","-","-","","-",""
"NCCC[P+](CCCC)(CCCC)CCCC.[O-]C(=O)C[C@@H](C(=O)O)N","-","-","AUTO_939","C1566_A0253","A133072","-","-","-","-","-","254.0","Celsius","-","-","-","-","254.0","Celsius","-","-","","-",""
"NCCC[P+](CCCC)(CCCC)CCCC.[O-]C(=O)[C@H](CS)N","-","-","AUTO_940","C1566_A0254","A133072","-","-","-","-","-","202.0","Celsius","-","-","-","-","202.0","Celsius","-","-","","-",""
"NCCC[P+](CCCC)(CCCC)CCCC.NC(=O)CC[C@@H](C(=O)[O-])N","-","-","AUTO_941","C1566_A0290","A133072","-","-","-","-","-","297.0","Celsius","-","-","-","-","297.0","Celsius","-","-","","-",""
"NCCC[P+](CCCC)(CCCC)CCCC.OC(=O)CC[C@@H](C(=O)[O-])N","-","-","AUTO_942","C1566_A0255","A133072","-","-","-","-","-","262.0","Celsius","-","-","-","-","262.0","Celsius","-","-","","-",""
"NCCC[P+](CCCC)(CCCC)CCCC.[O-]C(=O)CN","-","-","AUTO_943","C1566_A0141","A133072","-","-","-","-","-","281.0","Celsius","-","-","-","-","281.0","Celsius","-","-","","-",""
"NCCC[P+](CCCC)(CCCC)CCCC.[O-]C(=O)[C@H](CC1=CNC=N1)N","-","-","AUTO_944","C1566_A0256","A133072","-","-","-","-","-","300.0","Celsius","-","-","-","-","300.0","Celsius","-","-","","-",""
"NCCC[P+](CCCC)(CCCC)CCCC.CC[C@@H]([C@@H](C(=O)[O-])N)C","-","-","AUTO_945","C1566_A0193","A133072","-","-","-","-","-","284.0","Celsius","-","-","-","-","284.0","Celsius","-","-","","-",""
"NCCC[P+](CCCC)(CCCC)CCCC.CC(C)CC(N)C([O-])=O","-","-","AUTO_946","C1566_A0289","A133072","-","-","-","-","-","283.0","Celsius","-","-","-","-","283.0","Celsius","-","-","","-",""
"NCCC[P+](CCCC)(CCCC)CCCC.NCCCC[C@@H](C(=O)[O-])N","-","-","AUTO_947","C1566_A0142","A133072","-","-","-","-","-","292.0","Celsius","-","-","-","-","292.0","Celsius","-","-","","-",""
"NCCC[P+](CCCC)(CCCC)CCCC.[O-]C(=O)[C@H](CCSC)N","-","-","AUTO_948","C1566_A0258","A133072","-","-","-","-","-","275.0","Celsius","-","-","-","-","275.0","Celsius","-","-","","-",""
"NCCC[P+](CCCC)(CCCC)CCCC.N[C@H](C(=O)[O-])CC1=CC=CC=C1","-","-","AUTO_949","C1566_A0259","A133072","-","-","-","-","-","282.0","Celsius","-","-","-","-","282.0","Celsius","-","-","","-",""