"SMILES","CASRN","EXTERNALID","N","NAME","ARTICLEID","PUBMEDID","PAGE","TABLE","Melting Point","UNIT {Melting Point}","Decomposition","UNIT {Decomposition}","Glass-transition temperature (Tg)","UNIT {Glass-transition temperature (Tg)}","Melting Point {measured, converted}","UNIT {Melting Point}","Decomposition {measured, converted}","UNIT {Decomposition}","Glass-transition temperature (Tg) {measured, converted}","UNIT {Glass-transition temperature (Tg)}","weight loss","UNIT {weight loss}","Solvent"
"CC(=C)C[N+](C1=CC=CC(=C1)O)(C)C.[Br-]","-","-","AUTO_1441","C0545_A0004","A132065","-","-","-","114.0","Celsius","-","-","-","-","114.0","Celsius","-","-","-","-","","-",""
"O=C(C1=CC=C(C=C1)O)CC[N+](C)(C)C.[Br-]","-","-","AUTO_1442","C0988_A0004","A132065","-","-","-","207.0","Celsius","-","-","-","-","207.0","Celsius","-","-","-","-","","-",""
"COC1=CC=CC(=C1)C(=O)CC[N+](C)(C)C.[Br-]","-","-","AUTO_1443","C0174_A0004","A132065","-","-","-","144.0","Celsius","-","-","-","-","144.0","Celsius","-","-","-","-","","-",""
"CC1=CC=C(C=C1)C(C2=CC=C(C=C2)C)C[N+](C)(C)C.[Br-]","-","-","AUTO_1444","C0355_A0004","A132065","-","-","-","246.0","Celsius","-","-","-","-","246.0","Celsius","-","-","-","-","","-",""
"CC1=CC=C(C=C1)[N+](C(C2=CC=CC=C2)C)(C)C.[Br-]","-","-","AUTO_1445","C0118_A0004","A132065","-","-","-","102.0","Celsius","-","-","-","-","102.0","Celsius","-","-","-","-","","-",""
"COC1=CC=C(C=C1)[N+](C(C2=CC=CC=C2)C)(C)C.[Br-]","-","-","AUTO_1446","C0602_A0004","A132065","-","-","-","108.0","Celsius","-","-","-","-","108.0","Celsius","-","-","-","-","","-",""
"CC(=C)C[N+](C1=CC(=C(C(=C1)C(C)(C)C)O)C(C)(C)C)(C)C.[Br-]","-","-","AUTO_1447","C0983_A0004","A132065","-","-","-","142.0","Celsius","-","-","-","-","142.0","Celsius","-","-","-","-","","-",""
"CC(=CC[N+](C1=CC(=C(C(=C1)C(C)(C)C)O)C(C)(C)C)(C)C)C.[Br-]","-","-","AUTO_1448","C0208_A0004","A132065","-","-","-","136.0","Celsius","-","-","-","-","136.0","Celsius","-","-","-","-","","-",""
"COC1=CC=C(C=C1)C(C2=CC=C(C=C2)OC)C[N+](C)(C)C.[Br-]","-","-","AUTO_1449","C0043_A0004","A132065","-","-","-","229.0","Celsius","-","-","-","-","229.0","Celsius","-","-","-","-","","-",""
"CC(=C)C#CC[N+](C1=CC(=C(C(=C1)C(C)(C)C)O)C(C)(C)C)(C)C.[Br-]","-","-","AUTO_1450","C0499_A0004","A132065","-","-","-","150.0","Celsius","-","-","-","-","150.0","Celsius","-","-","-","-","","-",""
"CC(C1=CC(=CC(=C1O)C(C)(C)C)[N+](CC2=CC=CC=C2)(C)C)(C)C.[Br-]","-","-","AUTO_1451","C0385_A0004","A132065","-","-","-","173.0","Celsius","-","-","-","-","173.0","Celsius","-","-","-","-","","-",""
"CCCCCCCCCCCCCCCC[N+](CC1=CC=CC=C1O)(C)C.[Br-]","-","-","AUTO_1452","C0136_A0004","A132065","-","-","-","51.0","Celsius","-","-","-","-","51.0","Celsius","-","-","-","-","","-",""
"CC(C1=CC(=CC(=C1O)C(C)(C)C)[N+](CC=CC2=CC=CC=C2)(C)C)(C)C.[Br-]","-","-","AUTO_1453","C0465_A0004","A132065","-","-","-","160.0","Celsius","-","-","-","-","160.0","Celsius","-","-","-","-","","-",""
"C=CC[N+](CCOC(=O)CCCCCCCCCCC)(CCOC(=O)CCCCCCCCCCC)C.[Br-]","-","-","AUTO_1454","C0392_A0004","A132065","-","-","-","78.0","Celsius","-","-","-","-","78.0","Celsius","-","-","-","-","","-",""
"C=CC[N+](CCOC(=O)CCCCCCCCCCCCCCC)(CCOC(=O)CCCCCCCCCCCCCCC)C.[Br-]","-","-","AUTO_1455","C0013_A0004","A132065","-","-","-","89.0","Celsius","-","-","-","-","89.0","Celsius","-","-","-","-","","-",""
"CC[N+](C(C1=CC=CC=C1)C)(CC)C.[Br-]","-","-","AUTO_1456","C0353_A0004","A132065","-","-","-","153.0","Celsius","-","-","-","-","153.0","Celsius","-","-","-","-","","-",""
"CC[N+](C(C1=CC=CC=C1)C)(CC)CC.[Br-]","-","-","AUTO_1457","C0796_A0004","A132065","-","-","-","149.0","Celsius","-","-","-","-","149.0","Celsius","-","-","-","-","","-",""
"CCC[N+](C(C1=CC=CC=C1)C)(CCC)CCC.[Br-]","-","-","AUTO_1458","C0143_A0004","A132065","-","-","-","162.0","Celsius","-","-","-","-","162.0","Celsius","-","-","-","-","","-",""
"CC([N+](CC1=CC=CC=C1)(C)C)C2=CC=CC=C2.[Br-]","-","-","AUTO_1459","C1045_A0004","A132065","-","-","-","155.0","Celsius","-","-","-","-","155.0","Celsius","-","-","-","-","","-",""
"CC[N+](C(C1=CC=CC=C1)C)(CC2=CC=CC=C2)CC.[Br-]","-","-","AUTO_1460","C0227_A0004","A132065","-","-","-","142.0","Celsius","-","-","-","-","142.0","Celsius","-","-","-","-","","-",""
"C=CCC=CC[N+](CC1=CC=CC=C1)(C)C.[Br-]","-","-","AUTO_1461","C0606_A0004","A132065","-","-","-","125.0","Celsius","-","-","-","-","125.0","Celsius","-","-","-","-","","-",""
"C=CC([N+](CC1=CC=CC=C1)(C)C)(CC=C)C.[Br-]","-","-","AUTO_1462","C0586_A0004","A132065","-","-","-","136.0","Celsius","-","-","-","-","136.0","Celsius","-","-","-","-","","-",""
"COCC[N+](CC1=CC=CC=C1)(C)C.[Br-]","-","-","AUTO_1463","C0129_A0004","A132065","-","-","-","125.0","Celsius","-","-","-","-","125.0","Celsius","-","-","-","-","","-",""
"OCCC[N+](CC1=CC=CC=C1)(C)C.[Br-]","-","-","AUTO_1464","C0772_A0004","A132065","-","-","-","101.0","Celsius","-","-","-","-","101.0","Celsius","-","-","-","-","","-",""
"CC=CC([N+](C)(C)C)C.[Br-]","-","-","AUTO_1465","C0661_A0004","A132065","-","-","-","171.0","Celsius","-","-","-","-","171.0","Celsius","-","-","-","-","","-",""
"CC(C[N+](C)(C)C)OC(=O)C.[Br-]","-","-","AUTO_1466","C0562_A0004","A132065","-","-","-","148.0","Celsius","-","-","-","-","148.0","Celsius","-","-","-","-","","-",""
"CC[N+](C1=CC=CC=C1)(CC2=CC=CC=C2)C.[Br-]","-","-","AUTO_1467","C0285_A0004","A132065","-","-","-","156.0","Celsius","-","-","-","-","156.0","Celsius","-","-","-","-","","-",""
"OC(C1=CC=C(C(=C1)O)O)C[N+](C)(C)C.[Br-]","-","-","AUTO_1468","C0132_A0004","A132065","-","-","-","196.0","Celsius","-","-","-","-","196.0","Celsius","-","-","-","-","","-",""
"OC(=O)CCCCC[N+](C)(C)C.[Br-]","-","-","AUTO_1469","C0747_A0004","A132065","-","-","-","183.0","Celsius","-","-","-","-","183.0","Celsius","-","-","-","-","","-",""
"CCC[N+](CC1=CC=CC=C1)(CC)C.[Br-]","-","-","AUTO_1470","C0068_A0004","A132065","-","-","-","123.0","Celsius","-","-","-","-","123.0","Celsius","-","-","-","-","","-",""
"O=C(C1=CC=CC=C1)C[N+](CC(=O)C)(C)C.[Br-]","-","-","AUTO_1471","C0696_A0004","A132065","-","-","-","149.0","Celsius","-","-","-","-","149.0","Celsius","-","-","-","-","","-",""
"COC1=CC=C(C=C1)C(=O)C[N+](CC(=O)C)(C)C.[Br-]","-","-","AUTO_1472","C0100_A0004","A132065","-","-","-","146.0","Celsius","-","-","-","-","146.0","Celsius","-","-","-","-","","-",""
"CC1=CC(=CC(=C1O)C)C[N+](C2=CC=CC=C2)(C)C.[Br-]","-","-","AUTO_1473","C0029_A0004","A132065","-","-","-","132.0","Celsius","-","-","-","-","132.0","Celsius","-","-","-","-","","-",""
"CCCCOC[N+](C)(C)C.[Br-]","-","-","AUTO_1474","C0415_A0004","A132065","-","-","-","74.0","Celsius","-","-","-","-","74.0","Celsius","-","-","-","-","","-",""
"CCCCCCCCCC[N+]1=CC=CC(=C1)CCCCC.[Br-]","-","-","AUTO_1475","C0538_A0004","A132065","-","-","-","30.0","Celsius","-","-","-","-","30.0","Celsius","-","-","-","-","","-",""
"CCC(=O)OCCCCCCCCCCC[N+]1=CC=CC=C1.[Br-]","-","-","AUTO_1476","C1116_A0004","A132065","-","-","-","35.0","Celsius","-","-","-","-","35.0","Celsius","-","-","-","-","","-",""
"CCOC(=O)C1=C[N+](=CC=C1C(C2=CC=CC=C2)C3=CC=CC=C3)CC4=CC=CC=C4.[Br-]","-","-","AUTO_1477","C0386_A0004","A132065","-","-","-","35.0","Celsius","-","-","-","-","35.0","Celsius","-","-","-","-","","-",""
"CCCCCCCC[N+]1=CC=C(C=C1)CCC.[Br-]","-","-","AUTO_1478","C0524_A0004","A132065","-","-","-","37.0","Celsius","-","-","-","-","37.0","Celsius","-","-","-","-","","-",""
"CCCCCCCCCCCCCC[N+]1=CC=C(C=C1)CCCCCC.[Br-]","-","-","AUTO_1479","C0621_A0004","A132065","-","-","-","37.0","Celsius","-","-","-","-","37.0","Celsius","-","-","-","-","","-",""
"CCCCCCCCCCCCCC[N+]1=CC=CC(=C1)CCCCC.[Br-]","-","-","AUTO_1480","C0558_A0004","A132065","-","-","-","39.0","Celsius","-","-","-","-","39.0","Celsius","-","-","-","-","","-",""
"CCCCCCCCCC[N+]1=CC=C(C=C1)C(=O)OCC.[Br-]","-","-","AUTO_1481","C0437_A0004","A132065","-","-","-","41.0","Celsius","-","-","-","-","41.0","Celsius","-","-","-","-","","-",""
"CCCCCCCCCCCC[N+]1=CC=C(C=C1)CCC.[Br-]","-","-","AUTO_1482","C0849_A0004","A132065","-","-","-","41.0","Celsius","-","-","-","-","41.0","Celsius","-","-","-","-","","-",""
"CCCCCCCCCCC[N+]1=CC=CC=C1.[Br-]","-","-","AUTO_1483","C0362_A0004","A132065","-","-","-","42.0","Celsius","-","-","-","-","42.0","Celsius","-","-","-","-","","-",""
"CCCCCCCC[N+]1=CC=C(C=C1)CC.[Br-]","-","-","AUTO_1484","C0615_A0004","A132065","-","-","-","43.0","Celsius","-","-","-","-","43.0","Celsius","-","-","-","-","","-",""
"CCCCCCCCCCCC[N+]1=CC=C(C=C1)CC.[Br-]","-","-","AUTO_1485","C0996_A0004","A132065","-","-","-","44.0","Celsius","-","-","-","-","44.0","Celsius","-","-","-","-","","-",""
"CCCCCCCCCC[N+]1=CC=CC=C1.[Br-]","-","-","AUTO_1486","C0535_A0004","A132065","-","-","-","45.0","Celsius","-","-","-","-","45.0","Celsius","-","-","-","-","","-",""
"CCCCCCCCCCCC[N+]1=CC=CC=C1.[Br-]","-","-","AUTO_1487","C0527_A0004","A132065","-","-","-","45.0","Celsius","-","-","-","-","45.0","Celsius","-","-","-","-","","-",""
"CCCCCC[C@H](CC1=CC=CC=[N+]1CCCCCC)C.[Br-]","-","-","AUTO_1488","C0889_A0004","A132065","-","-","-","47.0","Celsius","-","-","-","-","47.0","Celsius","-","-","-","-","","-",""
"CCCCC1=CC=C([N+](=C1)CC(=O)OCC)C.[Br-]","-","-","AUTO_1489","C0483_A0004","A132065","-","-","-","51.0","Celsius","-","-","-","-","51.0","Celsius","-","-","-","-","","-",""
"COC1=CC=C(C=C1CC[N+]2=CC=CC=C2)OC.[Br-]","-","-","AUTO_1490","C0120_A0004","A132065","-","-","-","54.0","Celsius","-","-","-","-","54.0","Celsius","-","-","-","-","","-",""
"CCCCCCCCCCCCC[N+]1=CC=CC=C1.[Br-]","-","-","AUTO_1491","C0906_A0004","A132065","-","-","-","55.0","Celsius","-","-","-","-","55.0","Celsius","-","-","-","-","","-",""
"FC1=CC=C(C=C1)C[N+]2=CC=CC=C2.[Br-]","-","-","AUTO_1492","C0256_A0004","A132065","-","-","-","58.0","Celsius","-","-","-","-","58.0","Celsius","-","-","-","-","","-",""
"CCCCCCCCCCCCCC[N+]1=CC=CC=C1.[Br-]","-","-","AUTO_1493","C0209_A0004","A132065","-","-","-","59.0","Celsius","-","-","-","-","59.0","Celsius","-","-","-","-","","-",""
"CCCC[N+]1=CC=C(C=C1)C(=O)OCC.[Br-]","-","-","AUTO_1494","C0135_A0004","A132065","-","-","-","60.0","Celsius","-","-","-","-","60.0","Celsius","-","-","-","-","","-",""
"CC(C[N+]1=CC=CC=C1)C.[Br-]","-","-","AUTO_1495","C0469_A0004","A132065","-","-","-","64.0","Celsius","-","-","-","-","64.0","Celsius","-","-","-","-","","-",""
"OCCCC1=CC=C[N+](=C1)C.[Br-]","-","-","AUTO_1496","C1097_A0004","A132065","-","-","-","64.0","Celsius","-","-","-","-","64.0","Celsius","-","-","-","-","","-",""
"CC1=CC=C[N+](=C1)CC2=CC=CC=C2.[Br-]","-","-","AUTO_1497","C0846_A0004","A132065","-","-","-","65.0","Celsius","-","-","-","-","65.0","Celsius","-","-","-","-","","-",""
"CCCC[N+]1=CC=CC=C1SCC2=CC=CC=C2.[Br-]","-","-","AUTO_1498","C0743_A0004","A132065","-","-","-","65.0","Celsius","-","-","-","-","65.0","Celsius","-","-","-","-","","-",""
"O=C(C1CCCCC1)C[N+]2=CC=CC=C2.[Br-]","-","-","AUTO_1499","C1048_A0004","A132065","-","-","-","69.0","Celsius","-","-","-","-","69.0","Celsius","-","-","-","-","","-",""
"CCCC1=CC=CC=[N+]1C.[Br-]","-","-","AUTO_1500","C0574_A0004","A132065","-","-","-","70.0","Celsius","-","-","-","-","70.0","Celsius","-","-","-","-","","-",""
"CCOC(=O)CC[N+]1=CC=CC=C1.[Br-]","-","-","AUTO_1501","C0531_A0004","A132065","-","-","-","71.0","Celsius","-","-","-","-","71.0","Celsius","-","-","-","-","","-",""
"CC[C@H]([N+]1=CC=CC=C1)C(=O)OCC.[Br-]","-","-","AUTO_1502","C0507_A0004","A132065","-","-","-","73.0","Celsius","-","-","-","-","73.0","Celsius","-","-","-","-","","-",""
"CCC[N+]1=CC=CC=C1.[Br-]","-","-","AUTO_1503","C0203_A0004","A132065","-","-","-","76.0","Celsius","-","-","-","-","76.0","Celsius","-","-","-","-","","-",""
"CC[N+]1=CC=CC(=C1)C(=O)N(CC)CC.[Br-]","-","-","AUTO_1504","C0476_A0004","A132065","-","-","-","77.0","Celsius","-","-","-","-","77.0","Celsius","-","-","-","-","","-",""
"C1=CC=[N+](C=C1)CCOC2=CC=CC=C2.[Br-]","-","-","AUTO_1505","C0807_A0004","A132065","-","-","-","78.0","Celsius","-","-","-","-","78.0","Celsius","-","-","-","-","","-",""
"CC1=CC(C)=[N+](C(=C1C)C)C.[Br-]","-","-","AUTO_1506","C0759_A0004","A132065","-","-","-","79.0","Celsius","-","-","-","-","79.0","Celsius","-","-","-","-","","-",""
"OCCCC1=CC=[N+](C=C1)C.[Br-]","-","-","AUTO_1507","C1147_A0004","A132065","-","-","-","79.0","Celsius","-","-","-","-","79.0","Celsius","-","-","-","-","","-",""
"CC[N+]1=C(C)C=CC=C1C.[Br-]","-","-","AUTO_1508","C1061_A0004","A132065","-","-","-","80.0","Celsius","-","-","-","-","80.0","Celsius","-","-","-","-","","-",""
"C[N+]1=CC=CC(=C1)C2=CC=CC=N2.[Br-]","-","-","AUTO_1509","C0504_A0004","A132065","-","-","-","80.0","Celsius","-","-","-","-","80.0","Celsius","-","-","-","-","","-",""
"CC(OC(=O)C[N+]1=CC=CC=C1)C.[Br-]","-","-","AUTO_1510","C0365_A0004","A132065","-","-","-","80.0","Celsius","-","-","-","-","80.0","Celsius","-","-","-","-","","-",""
"CC1=CC=[N+](C=C1)CN2CCOCC2.[Br-]","-","-","AUTO_1511","C0147_A0004","A132065","-","-","-","83.0","Celsius","-","-","-","-","83.0","Celsius","-","-","-","-","","-",""
"C[N+]1=CC=C(C=C1)CC2=CC=CC=C2.[Br-]","-","-","AUTO_1512","C0395_A0004","A132065","-","-","-","86.0","Celsius","-","-","-","-","86.0","Celsius","-","-","-","-","","-",""
"FCC[N+]1=CC=CC(=C1)C(=O)OCC.[Br-]","-","-","AUTO_1513","C0367_A0004","A132065","-","-","-","87.0","Celsius","-","-","-","-","87.0","Celsius","-","-","-","-","","-",""
"CC1=CC=[N+](C=C1)CCC2=CC=CC=C2.[Br-]","-","-","AUTO_1514","C0946_A0004","A132065","-","-","-","90.0","Celsius","-","-","-","-","90.0","Celsius","-","-","-","-","","-",""
"CCCC[N+]1=CC=CC(=C1)C(=O)O.[Br-]","-","-","AUTO_1515","C0053_A0004","A132065","-","-","-","91.0","Celsius","-","-","-","-","91.0","Celsius","-","-","-","-","","-",""
"C=CC[N+]1=CC=CC(=C1)C(=O)N(CC)CC.[Br-]","-","-","AUTO_1516","C0521_A0004","A132065","-","-","-","92.0","Celsius","-","-","-","-","92.0","Celsius","-","-","-","-","","-",""
"CCOC(=O)C([N+]1=CC=CC=C1)C(=O)OCC.[Br-]","-","-","AUTO_1517","C0616_A0004","A132065","-","-","-","94.0","Celsius","-","-","-","-","94.0","Celsius","-","-","-","-","","-",""
"CC(=O)OCCCC[N+]1=CC=CC(=C1)O.[Br-]","-","-","AUTO_1518","C0102_A0004","A132065","-","-","-","95.0","Celsius","-","-","-","-","95.0","Celsius","-","-","-","-","","-",""
"C1=CC=C(C=C1)CO[N+]2=CC=CC=C2.[Br-]","-","-","AUTO_1519","C1002_A0004","A132065","-","-","-","95.0","Celsius","-","-","-","-","95.0","Celsius","-","-","-","-","","-",""
"C=CC[N+]1=CC=CC=C1.[Br-]","-","-","AUTO_1520","C0625_A0004","A132065","-","-","-","96.0","Celsius","-","-","-","-","96.0","Celsius","-","-","-","-","","-",""
"CCOC(=O)C1=CC=C[N+](=C1)C.[Br-]","-","-","AUTO_1521","C1049_A0004","A132065","-","-","-","96.0","Celsius","-","-","-","-","96.0","Celsius","-","-","-","-","","-",""
"OCC[N+]1=CC=CC(=C1)C.[Br-]","-","-","AUTO_1522","C0740_A0004","A132065","-","-","-","97.0","Celsius","-","-","-","-","97.0","Celsius","-","-","-","-","","-",""
"CC[N+]1=CC=CC=C1C.[Br-]","-","-","AUTO_1523","C0479_A0004","A132065","-","-","-","97.0","Celsius","-","-","-","-","97.0","Celsius","-","-","-","-","","-",""
"CC([N+]1=CC=CC=C1)C.[Br-]","-","-","AUTO_1524","C0346_A0004","A132065","-","-","-","97.0","Celsius","-","-","-","-","97.0","Celsius","-","-","-","-","","-",""
"CCCC[N+]1=CC=CC=C1.[Br-]","-","-","AUTO_1525","C0734_A0004","A132065","-","-","-","98.0","Celsius","-","-","-","-","98.0","Celsius","-","-","-","-","","-",""
"CC[N+]1=CC=C(C=C1)C2=CC=NC=C2.[Br-]","-","-","AUTO_1526","C1076_A0004","A132065","-","-","-","98.0","Celsius","-","-","-","-","98.0","Celsius","-","-","-","-","","-",""
"C=CC[N+]1=CC=CC(=C1)O.[Br-]","-","-","AUTO_1527","C0004_A0004","A132065","-","-","-","98.0","Celsius","-","-","-","-","98.0","Celsius","-","-","-","-","","-",""
"C1=CC=C(C=C1)C[N+]2=CC=CC=C2.[Br-]","-","-","AUTO_1528","C0806_A0004","A132065","-","-","-","99.0","Celsius","-","-","-","-","99.0","Celsius","-","-","-","-","","-",""
"CCOC(=O)CCC1=CC=[N+](C=C1)C.[Br-]","-","-","AUTO_1529","C0690_A0004","A132065","-","-","-","100.0","Celsius","-","-","-","-","100.0","Celsius","-","-","-","-","","-",""
"CC[N+]1=CC=CC(=C1)C(=O)C.[Br-]","-","-","AUTO_1530","C0804_A0004","A132065","-","-","-","100.0","Celsius","-","-","-","-","100.0","Celsius","-","-","-","-","","-",""
"C=CC[N+]1=CC=CC(=C1)C=O.[Br-]","-","-","AUTO_1531","C0369_A0004","A132065","-","-","-","100.0","Celsius","-","-","-","-","100.0","Celsius","-","-","-","-","","-",""
"CC(=O)C[N+]1=C(C)C=CC=C1C.[Br-]","-","-","AUTO_1532","C0015_A0004","A132065","-","-","-","104.0","Celsius","-","-","-","-","104.0","Celsius","-","-","-","-","","-",""
"CC[N+]1=CC=CC(=C1)O.[Br-]","-","-","AUTO_1533","C0336_A0004","A132065","-","-","-","106.0","Celsius","-","-","-","-","106.0","Celsius","-","-","-","-","","-",""
"CCO[N+]1=CC=C(C=C1)OC.[Br-]","-","-","AUTO_1534","C0494_A0004","A132065","-","-","-","109.0","Celsius","-","-","-","-","109.0","Celsius","-","-","-","-","","-",""
"CCCOC(=O)C[N+]1=CC=CC=C1.[Br-]","-","-","AUTO_1535","C1089_A0004","A132065","-","-","-","110.0","Celsius","-","-","-","-","110.0","Celsius","-","-","-","-","","-",""
"C=CC[N+]1=CC=CC=C1CO.[Br-]","-","-","AUTO_1536","C0389_A0004","A132065","-","-","-","110.0","Celsius","-","-","-","-","110.0","Celsius","-","-","-","-","","-",""
"OCC[N+]1=CC=CC=C1.[Br-]","-","-","AUTO_1537","C0530_A0004","A132065","-","-","-","110.0","Celsius","-","-","-","-","110.0","Celsius","-","-","-","-","","-",""
"OCC1=CC=[N+](C=C1)CC=C.[Br-]","-","-","AUTO_1538","C1016_A0004","A132065","-","-","-","111.0","Celsius","-","-","-","-","111.0","Celsius","-","-","-","-","","-",""
"C#CCCCC[N+]1=CC=CC=C1.[Br-]","-","-","AUTO_1539","C0719_A0004","A132065","-","-","-","114.0","Celsius","-","-","-","-","114.0","Celsius","-","-","-","-","","-",""
"N#CCC[N+]1=CC=CC(=C1)C.[Br-]","-","-","AUTO_1540","C0857_A0004","A132065","-","-","-","116.0","Celsius","-","-","-","-","116.0","Celsius","-","-","-","-","","-",""
"C1=CC=C(N=C1)[N+]2=CC=CC=C2.[Br-]","-","-","AUTO_1541","C0596_A0004","A132065","-","-","-","118.0","Celsius","-","-","-","-","118.0","Celsius","-","-","-","-","","-",""
"OCC1=CC=[N+](C=C1)C(C)C.[Br-]","-","-","AUTO_1542","C1090_A0004","A132065","-","-","-","119.0","Celsius","-","-","-","-","119.0","Celsius","-","-","-","-","","-",""
"ClCCC[N+]1=CC=CC=C1.[Br-]","-","-","AUTO_1543","C1085_A0004","A132065","-","-","-","120.0","Celsius","-","-","-","-","120.0","Celsius","-","-","-","-","","-",""
"CC[N+]1=CC=CC=C1.[Br-]","-","-","AUTO_1544","C0062_A0004","A132065","-","-","-","121.0","Celsius","-","-","-","-","121.0","Celsius","-","-","-","-","","-",""
"C=CC[N+]1=CC=C(C=C1)C#N.[Br-]","-","-","AUTO_1545","C0814_A0004","A132065","-","-","-","121.0","Celsius","-","-","-","-","121.0","Celsius","-","-","-","-","","-",""
"CC[N+]1=CC=C(C=C1)C.[Br-]","-","-","AUTO_1546","C0250_A0004","A132065","-","-","-","121.0","Celsius","-","-","-","-","121.0","Celsius","-","-","-","-","","-",""
"OCC1=CC=CC=[N+]1C(C)C.[Br-]","-","-","AUTO_1547","C0789_A0004","A132065","-","-","-","122.0","Celsius","-","-","-","-","122.0","Celsius","-","-","-","-","","-",""
"OCC[N+]1=CC=CC(=C1)O.[Br-]","-","-","AUTO_1548","C0751_A0004","A132065","-","-","-","123.0","Celsius","-","-","-","-","123.0","Celsius","-","-","-","-","","-",""
"OCC[N+]1=CC=C(C(=C1)C)C.[Br-]","-","-","AUTO_1549","C0273_A0004","A132065","-","-","-","127.0","Celsius","-","-","-","-","127.0","Celsius","-","-","-","-","","-",""
"CC(=CC[N+]1=CC=C(C=C1)C)C.[Br-]","-","-","AUTO_1550","C0282_A0004","A132065","-","-","-","128.0","Celsius","-","-","-","-","128.0","Celsius","-","-","-","-","","-",""
"CC(=O)[C@H]([N+]1=CC=CC=C1C)C.[Br-]","-","-","AUTO_1551","C0370_A0004","A132065","-","-","-","133.0","Celsius","-","-","-","-","133.0","Celsius","-","-","-","-","","-",""
"N#CCC[N+]1=CC=C(C(=C1)C)C.[Br-]","-","-","AUTO_1552","C0659_A0004","A132065","-","-","-","133.0","Celsius","-","-","-","-","133.0","Celsius","-","-","-","-","","-",""
"CCOC(=O)C[N+]1=CC=CC=C1.[Br-]","-","-","AUTO_1553","C1110_A0004","A132065","-","-","-","137.0","Celsius","-","-","-","-","137.0","Celsius","-","-","-","-","","-",""