"SMILES","CASRN","EXTERNALID","N","NAME","ARTICLEID","PUBMEDID","PAGE","TABLE","Melting Point","UNIT {Melting Point}","Decomposition","UNIT {Decomposition}","Glass-transition temperature (Tg)","UNIT {Glass-transition temperature (Tg)}","Melting Point {measured, converted}","UNIT {Melting Point}","Decomposition {measured, converted}","UNIT {Decomposition}","Glass-transition temperature (Tg) {measured, converted}","UNIT {Glass-transition temperature (Tg)}","weight loss","UNIT {weight loss}","Solvent"
"[I-].FC(F)(F)CC[N+]1=CC=CC=N1","-","-","AUTO_1603","-","A139600","33354944","-","-","-","-","274.0","Celsius","-","-","-","-","274.0","Celsius","-","-","","-",""
"[Br-].CCCC[N+]1=CN(C)C=C1","-","-","AUTO_1609","-","A140250","-","-","-","-","-","275.0","Celsius","-","-","-","-","275.0","Celsius","-","-","","-",""
"CCCC[N+]1=CC=C(C)C=C1.FC(F)(F)S(=O)(=O)[N-]S(=O)(=O)C(F)(F)F","-","-","AUTO_1611","-","A139552","21604775","-","-","-","-","275.0","Celsius","-","-","-","-","275.0","Celsius","-","-","","-",""
"CCCC[S+]1CCCC1.FC(F)(F)S(=O)(=O)[N-]S(=O)(=O)C(F)(F)F","-","-","AUTO_1613","-","A140250","-","-","-","-","-","275.0","Celsius","-","-","-","-","275.0","Celsius","-","-","","-",""
"[Br-].CC[N+](C)(CC)CCO","-","-","AUTO_1614","-","A140250","-","-","-","-","-","275.0","Celsius","-","-","-","-","275.0","Celsius","-","-","","-",""
"CCCCCCC[S+]1CCCC1.FC(F)(F)S(=O)(=O)[N-]S(=O)(=O)C(F)(F)F","-","-","AUTO_1615","-","A139600","33354944","-","-","-","-","275.0","Celsius","-","-","-","-","275.0","Celsius","-","-","","-",""
"[Br-].CCCCN1C=C[N+](CC2=CC=CC3=C2C=CC=C3)=C1","-","-","AUTO_1617","-","A139600","33354944","-","-","-","-","275.0","Celsius","-","-","-","-","275.0","Celsius","-","-","","-",""
"CCCCCC[S+]1CCCC1.FC(F)(F)S(=O)(=O)[N-]S(=O)(=O)C(F)(F)F","-","-","AUTO_1618","-","A139600","33354944","-","-","-","-","275.0","Celsius","-","-","-","-","275.0","Celsius","-","-","","-",""
"CCCCN1C=C[N+](C)=C1.FC(F)(F)C1=CC=C(C=C1)[B-](C2=CC=C(C=C2)C(F)(F)F)(C3=CC=C(C=C3)C(F)(F)F)C4=CC=C(C=C4)C(F)(F)F","-","-","AUTO_1619","-","A139600","33354944","-","-","-","-","275.0","Celsius","-","-","-","-","275.0","Celsius","-","-","","-",""
"CCCC[N+]1=CC=C(C)C=C1.[O-]S(=O)(=O)C(F)(F)C(F)(F)C(F)(F)C(F)(F)F","-","-","AUTO_1621","-","A140250","-","-","-","-","-","275.0","Celsius","-","-","-","-","275.0","Celsius","-","-","","-",""
"[N-]=C=S.CCCCCCN(CCCCCC)C(N(CCCCCC)CCCCCC)=[N+](C)C","-","-","AUTO_1624","-","A140250","-","-","-","-","-","275.0","Celsius","-","-","-","-","275.0","Celsius","-","-","","-",""
"CCCCCCCCCC[S+]1CCCC1.FC(F)(F)S(=O)(=O)[N-]S(=O)(=O)C(F)(F)F","-","-","AUTO_1626","-","A139525","17665379","-","-","-","-","275.0","Celsius","-","-","-","-","275.0","Celsius","-","-","","-",""
"OC(=O)CCC([O-])=O.CCCC[P+](CCCC)(CCCC)CCCC","-","-","AUTO_1629","-","A139524","17639151","-","-","-","-","276.0","Celsius","-","-","-","-","276.0","Celsius","-","-","","-",""
"FC(F)(F)S(=O)(=O)[N-]S(=O)(=O)C(F)(F)F.FC(F)(F)CCC[N+]1=CN(CN2C=CC=N2)C=C1","-","-","AUTO_1630","-","A139520","17047790","-","-","-","-","276.0","Celsius","-","-","-","-","276.0","Celsius","-","-","","-",""
"OP(O)[O-].CCN1C=C[N+](C)=C1","-","-","AUTO_1631","-","A140250","-","-","-","-","-","276.0","Celsius","-","-","-","-","276.0","Celsius","-","-","","-",""
"[I-].CN1C=C[N+](CCC(F)(F)C(F)(F)C(F)(F)C(F)(F)C(F)(F)C(F)(F)F)=C1","-","-","AUTO_1635","-","A140250","-","-","-","-","-","277.0","Celsius","-","-","-","-","277.0","Celsius","-","-","","-",""
"CC([O-])=O.CC(C)CN1C=C[N+](CC(C)C)=C1","-","-","AUTO_1638","-","A140250","-","-","-","-","-","277.0","Celsius","-","-","-","-","277.0","Celsius","-","-","","-",""
"COC(=O)[C@@H]([N-]S(=O)(=O)C(F)(F)F)C(C)C.CCCC[P+](CCCC)(CCCC)CCCC","-","-","AUTO_1640","-","A139519","16855692","-","-","-","-","277.0","Celsius","-","-","-","-","277.0","Celsius","-","-","","-",""
"FC(F)(F)S(=O)(=O)[N-]S(=O)(=O)C(F)(F)F.CC1=CC=C(C[N+](C)(C)CC2=CC=C(C)C=C2)C=C1","-","-","AUTO_1641","-","A140250","-","-","-","-","-","277.0","Celsius","-","-","-","-","277.0","Celsius","-","-","","-",""
"COCC[N+](CCOC)(CCOC)CCOC.FC(F)(F)COS(=O)(=O)[N-]S(=O)(=O)OCC(F)(F)F","-","-","AUTO_1642","-","A140250","-","-","-","-","-","277.0","Celsius","-","-","-","-","277.0","Celsius","-","-","","-",""
"[O-]S(O)(=O)=O.CC[NH+](CC)CC1=CC=C(O)C=C1","-","-","AUTO_1643","-","A140250","-","-","","-","-","277.0","Celsius","-","-","-","-","277.0","Celsius","-","-","","-",""
"F[B-](F)(F)F.CCCC[N+](CCCC)(CCCC)CCCC","-","-","AUTO_1645","-","A139568","25241963","-","","-","-","277.84","Celsius","-","-","-","-","277.84","Celsius","-","-","","-",""
"FC(F)(F)S(=O)(=O)[N-]S(=O)(=O)C(F)(F)F.CC(C)N(CCN1C=C[N+](CCN(C(C)C)C(C)C)=C1)C(C)C","-","-","AUTO_1647","-","A139546","20499940","-","-","-","-","278.0","Celsius","-","-","-","-","278.0","Celsius","-","-","","-",""
"C[N+]1=NN(CC2=CC=CC=C2)C=C1.FC(F)(F)S(=O)(=O)[N-]S(=O)(=O)C(F)(F)F","-","-","AUTO_1649","-","A140250","-","-","-","-","-","278.0","Celsius","-","-","-","-","278.0","Celsius","-","-","","-",""
"C[N+]1=CN(CN2C=CC=N2)C=C1.FC(F)(F)S(=O)(=O)[N-]S(=O)(=O)C(F)(F)F","-","-","AUTO_1652","-","A140250","-","-","-","-","-","279.0","Celsius","-","-","-","-","279.0","Celsius","-","-","","-",""
"FC(F)(F)S(=O)(=O)[N-]S(=O)(=O)C(F)(F)F.CCCCC[N+](CCCCC)(CCCCC)CCOCC","-","-","AUTO_1653","-","A139567","24888334","-","-","-","-","279.0","Celsius","-","-","-","-","279.0","Celsius","-","-","","-",""
"[Br-].CCCC[N+]1=CC(CN2CCC[C@H]2CO)=CC=C1","-","-","AUTO_1654","-","A139561","24163003","-","-","-","-","279.0","Celsius","-","-","-","-","279.0","Celsius","-","-","","-",""
"CCCCN1C=C[N+](C)=C1.N#CC1=C(N=C([N-]1)C2=CC=CC=C2)C#N","-","-","AUTO_1655","-","A140250","-","-","-","-","-","279.0","Celsius","-","-","-","-","279.0","Celsius","-","-","","-",""
"[Br-].CCCCCC[N+]1(C)CCCCC1","-","-","AUTO_1656","-","A140250","-","-","-","-","-","279.55","Celsius","-","-","-","-","279.55","Celsius","-","-","","-",""
"CC[N+]1=CN(C)C=C1.OC(=O)C1=CC=C(C=C1)C([O-])=O","-","-","AUTO_1657","-","A139584","27819712","-","-","-","-","279.9","Celsius","-","-","-","-","279.9","Celsius","-","-","","-",""
"CCN1C=C[N+](C)=C1.FC(F)(F)S(=O)(=O)[N-]C#N","-","-","AUTO_1662","-","A140250","-","-","-","-","-","280.0","Celsius","-","-","-","-","280.0","Celsius","-","-","","-",""
"[Cl-].CN1C=C[N+](C[C@H](O)CO)=C1","-","-","AUTO_1663","-","A139530","18217657","-","-","-","-","280.0","Celsius","-","-","-","-","280.0","Celsius","-","-","","-",""
"[O-]S(O)(=O)=O.CC(C)[NH2+]C(C)C","-","-","AUTO_1664","-","A139530","18217657","-","","-","-","280.0","Celsius","-","-","-","-","280.0","Celsius","-","-","","-",""
"[O-]Cl(=O)(=O)=O.C[N+]1(C)CCCC1","-","-","AUTO_1667","-","A140250","-","-","-","-","-","280.0","Celsius","-","-","-","-","280.0","Celsius","-","-","","-",""
"CCC(C)[N+]1=CN(C)C=C1.FC(F)(F)C(F)(F)C(F)(F)C(F)(F)S(=O)(=O)[N-]S(=O)(=O)C(F)(F)C(F)(F)C(F)(F)C(F)(F)F","-","-","AUTO_1669","-","A140250","-","-","-","-","-","280.0","Celsius","-","-","-","-","280.0","Celsius","-","-","","-",""
"[O-]S(=O)(=O)NC1CCCCC1.CCCC[P+](CCCC)(CCCC)CCCC","-","-","AUTO_1671","-","A140250","-","-","-","-","-","280.0","Celsius","-","-","-","-","280.0","Celsius","-","-","","-",""
"CC1=CC(=O)[N-]S(=O)(=O)O1.CCCC[P+](CCCC)(CCCC)CCCC","-","-","AUTO_1672","-","A140250","-","-","-","-","-","280.0","Celsius","-","-","-","-","280.0","Celsius","-","-","","-",""
"[I-].C[N+]1=CN(C=C1)[C@@H](CC2=CC=CC=C2)C(=O)NCC3=CC=CC=C3","-","-","AUTO_1678","-","A140250","-","-","-","-","-","280.0","Celsius","-","-","-","-","280.0","Celsius","-","-","","-",""
"CC[N+]1=CN(C)C=C1.FC(F)(F)COS(=O)(=O)[N-]S(=O)(=O)OCC(F)(F)F","-","-","AUTO_1679","-","A139561","24163003","-","-","-","-","280.0","Celsius","-","-","-","-","280.0","Celsius","-","-","","-",""
"FC(F)(F)S(=O)(=O)[N-]S(=O)(=O)C(F)(F)F.CCCC[N+]1=CC(CN2CCC[C@H]2CO)=CC=C1","-","-","AUTO_1680","-","A139541","20039339","-","-","-","-","280.0","Celsius","-","-","-","-","280.0","Celsius","-","-","","-",""
"[Br-].CCCCCCCCCCCCCCCC[N+]1=CN(CCCCCCOC2=CC=C(C=C2)/N=N/C3=CC=C(C)C=C3)C=C1","-","-","AUTO_1681","-","A140250","-","-","-","-","-","280.0","Celsius","-","-","-","-","280.0","Celsius","-","-","","-",""
"F[B-](F)(F)F.CC(C)[C@H](N)CN1C=C[N+](C)=C1","-","-","AUTO_1685","-","A140250","-","-","","-","-","281.0","Celsius","-","-","-","-","281.0","Celsius","-","-","","-",""
"F[P-](F)(F)(F)(F)F.CC[C@H](C)[C@H](N)CN1C=C[N+](C)=C1","-","-","AUTO_1686","-","A139559","23296265","-","","-","-","281.0","Celsius","-","-","-","-","281.0","Celsius","-","-","","-",""
"[O-]C(=O)C([O-])=O.CCCCCCCCCCCCCC[P+](CCCCCC)(CCCCCC)CCCCCC","-","-","AUTO_1687","-","A140250","-","-","-","-","-","281.0","Celsius","-","-","-","-","281.0","Celsius","-","-","","-",""
"F[P-](F)(F)(F)(F)F.C[N+]1(CC#N)CCCC1","-","-","AUTO_1688","-","A140250","-","-","","-","-","281.0","Celsius","-","-","-","-","281.0","Celsius","-","-","","-",""
"N#C[N-]C#N.CCCCCCCCCCCCCCCCOC(=O)C[N+](C)(C)C","-","-","AUTO_1689","-","A140250","-","-","-","-","-","281.0","Celsius","-","-","-","-","281.0","Celsius","-","-","","-",""
"[Cl-].FC1=CC=C(C=C1)[C@@H]2CC[NH2+]C[C@H]2COC3=CC=C4OCOC4=C3","-","-","AUTO_1690","-","A140250","-","-","","-","-","281.35","Celsius","-","-","-","-","281.35","Celsius","-","-","","-",""
"[O-]Cl(=O)(=O)=O.CCCC[N+]1=CN(C)C=C1","-","-","AUTO_1693","-","A140250","-","-","-","-","-","282.0","Celsius","-","-","-","-","282.0","Celsius","-","-","","-",""
"FC(F)(F)S(=O)(=O)[N-]S(=O)(=O)C(F)(F)F.CCCC[N+](CCCC)(CCCC)CCOCC","-","-","AUTO_1697","-","A139540","19902435","-","-","-","-","282.0","Celsius","-","-","-","-","282.0","Celsius","-","-","","-",""
"COCC[N+]1(C)CCCC1.F[B-](F)(F)C(F)(F)C(F)(F)C(F)(F)F","-","-","AUTO_1702","-","A140250","-","-","-","-","-","283.0","Celsius","-","-","-","-","283.0","Celsius","-","-","","-",""
"FC(F)(F)S(=O)(=O)[N-]S(=O)(=O)C(F)(F)F.FC(F)(F)CC[N+]1=CN(CN2C=CC=N2)C=C1","-","-","AUTO_1703","-","A139515","16389616","-","-","-","-","283.0","Celsius","-","-","-","-","283.0","Celsius","-","-","","-",""
"[O-]Cl(=O)(=O)=O.CCCCCCCCCCCCOC(=O)C[N+](C)(C)C","-","-","AUTO_1704","-","A140250","-","-","-","-","-","283.0","Celsius","-","-","-","-","283.0","Celsius","-","-","","-",""
"[I-].CCCCCCCC[N+]1=CN(C)C=C1","-","-","AUTO_1706","-","A140250","-","-","-","-","-","284.0","Celsius","-","-","-","-","284.0","Celsius","-","-","","-",""
"[I-].CCCCCCCCCC[N+]1=CN(C)C=C1","-","-","AUTO_1708","-","A140250","-","-","-","-","-","284.0","Celsius","-","-","-","-","284.0","Celsius","-","-","","-",""
"F[B-](F)(F)F.C[N+]1=NN(CC2=CC=CC=C2)C=C1","-","-","AUTO_1709","-","A140250","-","-","","-","-","284.0","Celsius","-","-","-","-","284.0","Celsius","-","-","","-",""
"COCC[N+]1(C)CCCC1.F[B-](F)(F)C(F)(F)C(F)(F)C(F)(F)C(F)(F)F","-","-","AUTO_1712","-","A139515","16389616","-","-","-","-","284.0","Celsius","-","-","-","-","284.0","Celsius","-","-","","-",""
"[Br-].CN1C=C[N+](CC2=CC=CC3=CC=CC=C23)=C1","-","-","AUTO_1713","-","A139591","31540061","-","-","-","-","284.0","Celsius","-","-","-","-","284.0","Celsius","-","-","","-",""
"CC1=CC(C)=NC([S-])=N1.CCCCCCCC[P+](CCCC)(CCCC)CCCC","-","-","AUTO_1715","-","A140250","-","-","-","-","-","284.3","Celsius","-","-","-","-","284.3","Celsius","-","-","","-",""
"[Br-].CC[N+](CC)(CC)CC","-","-","AUTO_1716","-","A140250","-","-","-","-","-","285.0","Celsius","-","-","-","-","285.0","Celsius","-","-","","-",""
"[O-]N(=O)=O.CCCCN1C=C[N+](C)=C1","-","-","AUTO_1717","-","A140250","-","-","-","-","-","285.0","Celsius","-","-","-","-","285.0","Celsius","-","-","","-",""
"[Br-].CC[N+](C)(C)CCO","-","-","AUTO_1718","-","A140250","-","-","-","-","-","285.0","Celsius","-","-","-","-","285.0","Celsius","-","-","","-",""
"CCC[N+]1(C)CCCC1.FC(F)(F)S(=O)(=O)[N-]C#N","-","-","AUTO_1721","-","A140250","-","-","-","-","-","285.0","Celsius","-","-","-","-","285.0","Celsius","-","-","","-",""
"[I-].C[N+]1(CCCC#N)CCCC1","-","-","AUTO_1722","-","A140250","-","-","-","-","-","285.0","Celsius","-","-","-","-","285.0","Celsius","-","-","","-",""
"COCC[N+]1(C)CCCC1.C[Si](C)(C)CCS([O-])(=O)=O","-","-","AUTO_1723","-","A139552","21604775","-","-","-","-","285.0","Celsius","-","-","-","-","285.0","Celsius","-","-","","-",""
"[O-][N+]([O-])=O.CCCCCCCCN1C=C[N+](CCCCCCCC)=C1","-","-","AUTO_1724","-","A140250","-","-","-","-","-","285.0","Celsius","-","-","-","-","285.0","Celsius","-","-","","-",""
"F[B-](F)(F)F.CC[C@H](C)[C@H](N)CN1C=C[N+](C)=C1","-","-","AUTO_1726","-","A140250","-","-","","-","-","285.0","Celsius","-","-","-","-","285.0","Celsius","-","-","","-",""
"CCC[N+]1=CN(CN2C=CC=N2)C=C1.FC(F)(F)S(=O)(=O)[N-]S(=O)(=O)C(F)(F)F","-","-","AUTO_1727","-","A140250","-","-","-","-","-","285.0","Celsius","-","-","-","-","285.0","Celsius","-","-","","-",""
"[I-].CCCCNC(=O)[C@H](CC1=CC=CC=C1)N2C=C[N+](C)=C2","-","-","AUTO_1729","-","A140250","-","-","-","-","-","285.0","Celsius","-","-","-","-","285.0","Celsius","-","-","","-",""
"[O-][N+]([O-])=O.CCCCCCCCCCCCCCN1C=C[N+](CCCCCCCCCCCCCC)=C1","-","-","AUTO_1730","-","A140250","-","-","-","-","-","285.0","Celsius","-","-","-","-","285.0","Celsius","-","-","","-",""
"O=N(=O)[N-]C#N.CCCC[N+](C)(C)N","-","-","AUTO_1732","-","A139542","20135648","-","-","-","-","285.5","Celsius","-","-","-","-","285.5","Celsius","-","-","","-",""
"[Cl-].C1OC2=CC3=C(C=C2O1)C4=CC5=CC=C6OCOC6=C5C=[N+]4CC3","-","-","AUTO_1733","-","A139596","32272210","-","-","-","-","286.0","Celsius","-","-","-","-","286.0","Celsius","-","-","","-",""
"[C@H](N)(C(C)C)C([O-])=O.CCCC[P+](CCCC)(CCCC)CCCC","-","-","AUTO_1735","-","A139518","16718320","-","-","-","-","286.0","Celsius","-","-","-","-","286.0","Celsius","-","-","","-",""
"[C@H](N)(CCCNC(N)=N)C([O-])=O.CCCC[P+](CCCC)(CCCC)CCCC","-","-","AUTO_1737","-","A139518","16718320","-","-","-","-","286.0","Celsius","-","-","-","-","286.0","Celsius","-","-","","-",""
"F[P-](F)(F)(F)(F)F.C[N+]1=NN(CC2=CC=CC=C2)C=C1","-","-","AUTO_1740","-","A140250","-","-","","-","-","287.0","Celsius","-","-","-","-","287.0","Celsius","-","-","","-",""
"F[P-](F)(F)(F)(F)F.CC(C)[C@H](N)CN1C=C[N+](C)=C1","-","-","AUTO_1742","-","A139591","31540061","-","","-","-","287.0","Celsius","-","-","-","-","287.0","Celsius","-","-","","-",""
"F[P-](F)(F)(F)(F)F.CC(C)C[C@H](N)CN1C=C[N+](C)=C1","-","-","AUTO_1743","-","A140250","-","-","","-","-","287.0","Celsius","-","-","-","-","287.0","Celsius","-","-","","-",""
"CCCCCCN1C=C[N+](CCCCCC)=C1.CCCCC(CC)COP([O-])(=O)OCC(CC)CCCC","-","-","AUTO_1744","-","A140250","-","-","-","-","-","287.0","Celsius","-","-","-","-","287.0","Celsius","-","-","","-",""
"[O-]S(Cl)(=O)=O.CN(C)C(=[NH2+])N(C)C","-","-","AUTO_1745","-","A140250","-","-","","-","-","287.2","Celsius","-","-","-","-","287.2","Celsius","-","-","","-",""
"COC(=O)[C@@H]([NH3+])CC1=CC=CC=C1.FC(F)(F)S(=O)(=O)[N-]S(=O)(=O)C(F)(F)F","-","-","AUTO_1747","-","A140250","-","-","","-","-","287.99","Celsius","-","-","-","-","287.99","Celsius","-","-","","-",""
"[I-].CCCCCC[N+]1=CN(C)C=C1","-","-","AUTO_1748","-","A140250","-","-","-","-","-","288.0","Celsius","-","-","-","-","288.0","Celsius","-","-","","-",""
"[C@H](N)(CC1=CC=CC=C1)C([O-])=O.CCCC[P+](CCCC)(CCCC)CCCC","-","-","AUTO_1749","-","A140250","-","-","-","-","-","288.0","Celsius","-","-","-","-","288.0","Celsius","-","-","","-",""
"[O-]N(=O)=O.CCCCCCCCCCCCN1C=C[N+](CCCCCCCCCCCC)=C1","-","-","AUTO_1750","-","A140250","-","-","-","-","-","288.0","Celsius","-","-","-","-","288.0","Celsius","-","-","","-",""
"OC1=CC(C([O-])=O)=C(O)C=C1.CCCCCCCCCCCCCC[P+](CCCCCC)(CCCCCC)CCCCCC","-","-","AUTO_1751","-","A139579","26885778","-","-","-","-","288.0","Celsius","-","-","-","-","288.0","Celsius","-","-","","-",""
"CCCC[N+]1=CN(CN2C=CC=N2)C=C1.FC(F)(F)S(=O)(=O)[N-]S(=O)(=O)C(F)(F)F","-","-","AUTO_1753","-","A140250","-","-","-","-","-","288.0","Celsius","-","-","-","-","288.0","Celsius","-","-","","-",""
"[O-]Cl(=O)(=O)=O.CCCCCCCCCCCCCCOC(=O)C[N+](C)(C)C","-","-","AUTO_1755","-","A140250","-","-","-","-","-","288.0","Celsius","-","-","-","-","288.0","Celsius","-","-","","-",""
"CCCCCCCCN1C=C[N+](CCCCCCCC)=C1.CCCCC(CC)COP([O-])(=O)OCC(CC)CCCC","-","-","AUTO_1756","-","A140250","-","-","-","-","-","288.0","Celsius","-","-","-","-","288.0","Celsius","-","-","","-",""
"CCCCC(CC)COP([O-])(=O)OCC(CC)CCCC.CCCCCCCCCCN1C=C[N+](CCCCCCCCCC)=C1","-","-","AUTO_1757","-","A140250","-","-","-","-","-","288.0","Celsius","-","-","-","-","288.0","Celsius","-","-","","-",""
"CCCCCCCCN1C=C[N+](C)=C1.FC(F)(F)C(F)(F)C1=NC(C#N)=C([N-]1)C#N","-","-","AUTO_1758","-","A139518","16718320","-","-","-","-","288.0","Celsius","-","-","-","-","288.0","Celsius","-","-","","-",""
"CC1=CC(C)=NC([S-])=N1.CCCCCCCCCC[P+](CCCC)(CCCC)CCCC","-","-","AUTO_1759","-","A140250","-","-","-","-","-","288.4","Celsius","-","-","-","-","288.4","Celsius","-","-","","-",""
"COCC[N+]1(C)CCCC1.F[B-](F)(F)C(F)(F)C(F)(F)F","-","-","AUTO_1761","-","A140250","-","-","-","-","-","289.0","Celsius","-","-","-","-","289.0","Celsius","-","-","","-",""
"F[P-](F)(F)(F)(F)F.CC(C)N(CC[N+]1=CN(C)C=C1)C(C)C","-","-","AUTO_1764","-","A140250","-","-","-","-","-","289.0","Celsius","-","-","-","-","289.0","Celsius","-","-","","-",""
"F[P-](F)(F)(F)(F)F.CCC[N+]1=CC=CC=C1","-","-","AUTO_1765","-","A139515","16389616","-","-","-","-","289.0","Celsius","-","-","-","-","289.0","Celsius","-","-","","-",""
"CC1=CC(C)=NC([S-])=N1.CCCCCCCCCCCCCC[P+](CCCC)(CCCC)CCCC","-","-","AUTO_1766","-","A140250","-","-","-","-","-","289.3","Celsius","-","-","-","-","289.3","Celsius","-","-","","-",""
"OS([O-])(=O)=O.CN(C)C1=CC=[N+](CCCS(O)(=O)=O)C=C1","-","-","AUTO_1767","-","A140250","-","-","-","-","-","289.99","Celsius","-","-","-","-","289.99","Celsius","-","-","","-",""
"N#C[C-](C#N)C#N.CCN1C=C[N+](C)=C1","-","-","AUTO_1768","-","A140250","-","-","-","-","-","290.0","Celsius","-","-","-","-","290.0","Celsius","-","-","","-",""
"[O-]S(O)(=O)=O.CC[NH+](CC)CC","-","-","AUTO_1769","-","A140250","-","-","","-","-","290.0","Celsius","-","-","-","-","290.0","Celsius","-","-","","-",""
"[Br-].CC[N+]1=C2CCCCCN2CCC1","-","-","AUTO_1771","-","A140250","-","-","-","-","-","290.0","Celsius","-","-","-","-","290.0","Celsius","-","-","","-",""
"CCOCC[N+]1(C)CCCC1.F[B-](F)(F)C(F)(F)C(F)(F)F","-","-","AUTO_1776","-","A139586","28884848","-","-","-","-","290.0","Celsius","-","-","-","-","290.0","Celsius","-","-","","-",""
"[O-]N(=O)=O.CCCCCCCCCCCCCCCCN1C=C[N+](CCCCCCCCCCCCCCCC)=C1","-","-","AUTO_1779","-","A140250","-","-","-","-","-","290.0","Celsius","-","-","-","-","290.0","Celsius","-","-","","-",""
"F[B-](C#N)(C#N)C(F)(F)F.C1=CC=C(C=C1)[P+](C2=CC=CC=C2)(C3=CC=CC=C3)C4=CC=CC=C4","-","-","AUTO_1780","-","A139541","20039339","-","-","-","-","290.0","Celsius","-","-","-","-","290.0","Celsius","-","-","","-",""
"[N-]1C=NN=N1.C1=CC=C(C=C1)[P+](C2=CC=CC=C2)(C3=CC=CC=C3)C4=CC=CC=C4","-","-","AUTO_1785","-","A140250","-","-","-","-","-","290.0","Celsius","-","-","-","-","290.0","Celsius","-","-","","-",""
"[I-].CCCCNC(=O)[C@H](CC1=CC=CC=C1)N2C=C[N+](CCCC)=C2","-","-","AUTO_1786","-","A139595","32140947","-","-","-","-","290.0","Celsius","-","-","-","-","290.0","Celsius","-","-","","-",""
"CC[NH+](CC)C1=CC=C(N)C=C1.FC(F)(F)S(=O)(=O)[N-]S(=O)(=O)C(F)(F)F","-","-","AUTO_1788","-","A140250","-","-","","-","-","290.0","Celsius","-","-","-","-","290.0","Celsius","-","-","","-",""
"CCCCC(CC)COP([O-])(=O)OCC(CC)CCCC.CCCCC(CC)CN1C=C[N+](CC(CC)CCCC)=C1","-","-","AUTO_1789","-","A140250","-","-","-","-","-","290.0","Celsius","-","-","-","-","290.0","Celsius","-","-","","-",""
"[Br-].CCC[N+]1=CC=CC=C1","-","-","AUTO_1792","-","A140250","-","-","-","-","-","291.0","Celsius","-","-","-","-","291.0","Celsius","-","-","","-",""
"[Cl-].FC(F)(F)C(F)(F)C(F)(F)C(F)(F)CC[P+](CCC(F)(F)C(F)(F)C(F)(F)C(F)(F)F)(CCC(F)(F)C(F)(F)C(F)(F)C(F)(F)F)CC1=CC=C(C=C)C=C1","-","-","AUTO_1795","-","A140250","-","-","-","-","-","291.0","Celsius","-","-","-","-","291.0","Celsius","-","-","","-",""
"F[B-](F)(F)F.CC(C)C[C@H](N)CN1C=C[N+](C)=C1","-","-","AUTO_1797","-","A140250","-","-","","-","-","291.0","Celsius","-","-","-","-","291.0","Celsius","-","-","","-",""