"SMILES","CASRN","EXTERNALID","N","NAME","ARTICLEID","PUBMEDID","PAGE","TABLE","Melting Point","UNIT {Melting Point}","Decomposition","UNIT {Decomposition}","Glass-transition temperature (Tg)","UNIT {Glass-transition temperature (Tg)}","Melting Point {measured, converted}","UNIT {Melting Point}","Decomposition {measured, converted}","UNIT {Decomposition}","Glass-transition temperature (Tg) {measured, converted}","UNIT {Glass-transition temperature (Tg)}","weight loss","UNIT {weight loss}","Solvent"
"BrCC(C[N+]1=CN(C(=C1Br)Br)C)Br.FC(S(=O)(=O)[N-]S(=O)(=O)C(F)(F)F)(F)F","-","-","AUTO_159","C1350_A0048","A133072","-","-","","-","-","307.0","Celsius","-","-","-","-","307.0","Celsius","-","-","","-",""
"CN1C=[N+](C(=C1I)I)CC(CBr)Br.FC(S(=O)(=O)[N-]S(=O)(=O)C(F)(F)F)(F)F","-","-","AUTO_160","C1351_A0048","A133072","-","-","","-","-","287.0","Celsius","-","-","-","-","287.0","Celsius","-","-","","-",""
"BrCC(CN1C=[N+](C(=C1I)I)CC(CBr)Br)Br.FC(S(=O)(=O)[N-]S(=O)(=O)C(F)(F)F)(F)F","-","-","AUTO_161","C1361_A0048","A133072","-","-","","-","-","282.0","Celsius","-","-","-","-","282.0","Celsius","-","-","","-",""
"CC1=[N+](C)C(=C(N1C)C)C.[I-]","-","-","AUTO_162","C0503_A0069","A133072","-","-","-","-","-","303.0","Celsius","-","-","-","-","303.0","Celsius","-","-","","-",""
"CC1=[N+](C)C(=C(N1C)C)C.FC(S(=O)(=O)[N-]S(=O)(=O)C(F)(F)F)(F)F","-","-","AUTO_163","C0503_A0048","A133072","-","-","-","-","-","470.0","Celsius","-","-","-","-","470.0","Celsius","-","-","","-",""
"CC1=[N+](C)C(=C(N1C)C)C.F[P-](F)(F)(F)(F)F","-","-","AUTO_164","C0503_A0011","A133072","-","-","","-","-","401.0","Celsius","-","-","-","-","401.0","Celsius","-","-","","-",""
"CCCC[N+]1=NN(C=2C1=CC=CC2)C.FC(S(=O)(=O)[N-]S(=O)(=O)C(F)(F)F)(F)F","-","-","AUTO_165","C0459_A0048","A133072","-","-","-","-","-","315.0","Celsius","-","-","-","-","315.0","Celsius","-","-","","-",""
"CCCC[N+]1=NN(C=2C1=CC=CC2)C.C(#N)[N-]C#N","-","-","AUTO_166","C0459_A0056","A133072","-","-","-","-","-","185.0","Celsius","-","-","-","-","185.0","Celsius","-","-","","-",""
"CCCC[N+]1=NN(C=2C1=CC=CC2)C.NCCCC[C@@H](C(=O)[O-])N","-","-","AUTO_167","C0459_A0142","A133072","-","-","-","-","-","200.0","Celsius","-","-","-","-","200.0","Celsius","-","-","","-",""
"CCCC[N+]1=NN(C=2C1=CC=CC2)C.S(=O)(=O)([O-])C1=CC=C(C)C=C1","-","-","AUTO_168","C0459_A0030","A133072","-","-","-","-","-","225.0","Celsius","-","-","-","-","225.0","Celsius","-","-","","-",""
"CN1N=[N+](C=2C1=CC=CC2)CC3=CC=CC=C3.[Br-]","-","-","AUTO_169","C0235_A0004","A133072","-","-","-","-","-","170.0","Celsius","-","-","-","-","170.0","Celsius","-","-","","-",""
"CN1N=[N+](C=2C1=CC=CC2)CC3=CC=CC=C3.FC(S(=O)(=O)[N-]S(=O)(=O)C(F)(F)F)(F)F","-","-","AUTO_170","C0235_A0048","A133072","-","-","-","-","-","280.0","Celsius","-","-","-","-","280.0","Celsius","-","-","","-",""
"CN1N=[N+](C=2C1=CC=CC2)CC3=CC=CC=C3.C(#N)[N-]C#N","-","-","AUTO_171","C0235_A0056","A133072","-","-","-","-","-","155.0","Celsius","-","-","-","-","155.0","Celsius","-","-","","-",""
"CN1N=[N+](C=2C1=CC=CC2)CC3=CC=CC=C3.NCCCC[C@@H](C(=O)[O-])N","-","-","AUTO_172","C0235_A0142","A133072","-","-","-","-","-","180.0","Celsius","-","-","-","-","180.0","Celsius","-","-","","-",""
"CN1N=[N+](C=2C1=CC=CC2)CC3=CC=CC=C3.S(=O)(=O)([O-])C1=CC=C(C)C=C1","-","-","AUTO_173","C0235_A0030","A133072","-","-","-","-","-","205.0","Celsius","-","-","-","-","205.0","Celsius","-","-","","-",""
"[N-]=[N+]=NCC[N+]1=CN(C=N1)C.Cl(=O)(=O)(=O)[O-]","-","-","AUTO_174","C0826_A0051","A133072","-","-","-","-","-","192.0","Celsius","-","-","-","-","192.0","Celsius","-","-","","-",""
"[N-]=[N+]=NCC[N+]1=CN(C=N1)C.[N+](=O)([O-])[O-]","-","-","AUTO_175","C0826_A0090","A133072","-","-","-","-","-","119.0","Celsius","-","-","-","-","119.0","Celsius","-","-","","-",""
"[N-]=[N+]=NCCN1C=N[N+](=C1)C.Cl(=O)(=O)(=O)[O-]","-","-","AUTO_176","C0583_A0051","A133072","-","-","-","-","-","152.0","Celsius","-","-","-","-","152.0","Celsius","-","-","","-",""
"[N-]=[N+]=NCCN1C=N[N+](=C1)C.[N+](=O)([O-])[O-]","-","-","AUTO_177","C0583_A0090","A133072","-","-","-","-","-","143.0","Celsius","-","-","-","-","143.0","Celsius","-","-","","-",""
"[N-]=[N+]=NCC[NH+]1C=NC=N1.Cl(=O)(=O)(=O)[O-]","-","-","AUTO_178","C0178_A0051","A133072","-","-","-","-","-","150.0","Celsius","-","-","-","-","150.0","Celsius","-","-","","-",""
"[N-]=[N+]=NCC[NH+]1C=NC=N1.[N+](=O)([O-])[O-]","-","-","AUTO_179","C0178_A0090","A133072","-","-","-","-","-","170.0","Celsius","-","-","-","-","170.0","Celsius","-","-","","-",""
"[N-]=[N+]=NCC[N+]1=CN(C=N1)N.Cl(=O)(=O)(=O)[O-]","-","-","AUTO_180","C0554_A0051","A133072","-","-","-","-","-","218.0","Celsius","-","-","-","-","218.0","Celsius","-","-","","-",""
"[N-]=[N+]=NCC[N+]1=CN(C=N1)N.[N+](=O)([O-])[O-]","-","-","AUTO_181","C0554_A0090","A133072","-","-","-","-","-","153.0","Celsius","-","-","-","-","153.0","Celsius","-","-","","-",""
"[N-]=[N+]=NCC[N+]1=CN(C=N1)N.[N-]=[N+]=[N-]","-","-","AUTO_182","C0554_A0073","A133072","-","-","-","-","-","106.0","Celsius","-","-","-","-","106.0","Celsius","-","-","","-",""
"C[N+]=1N=CN(C1)CCC(F)(F)F.FC(S(=O)(=O)[N-]S(=O)(=O)C(F)(F)F)(F)F","-","-","AUTO_183","C1396_A0048","A133072","-","-","-","-","-","376.0","Celsius","-","-","-","-","376.0","Celsius","-","-","","-",""
"CCCC[N+]=1N=CN(C1)CCC(F)(F)F.FC(S(=O)(=O)[N-]S(=O)(=O)C(F)(F)F)(F)F","-","-","AUTO_184","C0550_A0048","A133072","-","-","-","-","-","395.0","Celsius","-","-","-","-","395.0","Celsius","-","-","","-",""
"CCCCCCC[N+]=1N=CN(C1)CCC(F)(F)F.FC(S(=O)(=O)[N-]S(=O)(=O)C(F)(F)F)(F)F","-","-","AUTO_185","C1389_A0048","A133072","-","-","-","-","-","402.0","Celsius","-","-","-","-","402.0","Celsius","-","-","","-",""
"CCCCCCCCCC[N+]=1N=CN(C1)CCC(F)(F)F.FC(S(=O)(=O)[N-]S(=O)(=O)C(F)(F)F)(F)F","-","-","AUTO_186","C1381_A0048","A133072","-","-","-","-","-","400.0","Celsius","-","-","-","-","400.0","Celsius","-","-","","-",""
"CCCCN1N=C[N+](=C1)CCC(C(C(C(F)(F)F)(F)F)(F)F)(F)F.FC(S(=O)(=O)[N-]S(=O)(=O)C(F)(F)F)(F)F","-","-","AUTO_187","C1372_A0048","A133072","-","-","-","-","-","394.0","Celsius","-","-","-","-","394.0","Celsius","-","-","","-",""
"CCCCCCCN1N=C[N+](=C1)CCC(C(C(C(F)(F)F)(F)F)(F)F)(F)F.FC(S(=O)(=O)[N-]S(=O)(=O)C(F)(F)F)(F)F","-","-","AUTO_188","C0172_A0048","A133072","-","-","-","-","-","396.0","Celsius","-","-","-","-","396.0","Celsius","-","-","","-",""
"CCCCCCCCCCN1N=C[N+](=C1)CCC(C(C(C(F)(F)F)(F)F)(F)F)(F)F.FC(S(=O)(=O)[N-]S(=O)(=O)C(F)(F)F)(F)F","-","-","AUTO_189","C0706_A0048","A133072","-","-","-","-","-","396.0","Celsius","-","-","-","-","396.0","Celsius","-","-","","-",""
"CN1N=C[N+](=C1)CCC(C(C(C(C(C(F)(F)F)(F)F)(F)F)(F)F)(F)F)(F)F.FC(S(=O)(=O)[N-]S(=O)(=O)C(F)(F)F)(F)F","-","-","AUTO_190","C0579_A0048","A133072","-","-","-","-","-","381.0","Celsius","-","-","-","-","381.0","Celsius","-","-","","-",""
"CCCCN1N=C[N+](=C1)CCC(C(C(C(C(C(F)(F)F)(F)F)(F)F)(F)F)(F)F)(F)F.FC(S(=O)(=O)[N-]S(=O)(=O)C(F)(F)F)(F)F","-","-","AUTO_191","C0992_A0048","A133072","-","-","-","-","-","368.0","Celsius","-","-","-","-","368.0","Celsius","-","-","","-",""
"CCCCCCCN1N=C[N+](=C1)CCC(C(C(C(C(C(F)(F)F)(F)F)(F)F)(F)F)(F)F)(F)F.FC(S(=O)(=O)[N-]S(=O)(=O)C(F)(F)F)(F)F","-","-","AUTO_192","C0074_A0048","A133072","-","-","-","-","-","405.0","Celsius","-","-","-","-","405.0","Celsius","-","-","","-",""
"CCCCCCC[N+]=1N=CN(C1)[C@@H](F)C.F[B-](F)(F)F","-","-","AUTO_193","C1386_A0020","A133072","-","-","-","-","-","336.0","Celsius","-","-","-","-","336.0","Celsius","-","-","","-",""
"CCCCCCC[N+]=1N=CN(C1)[C@@H](F)C.FC(S(=O)(=O)[N-]S(=O)(=O)C(F)(F)F)(F)F","-","-","AUTO_194","C1386_A0048","A133072","-","-","-","-","-","359.0","Celsius","-","-","-","-","359.0","Celsius","-","-","","-",""
"CCCCCCCCCC[N+]=1N=CN(C1)[C@@H](F)C.FC(S(=O)(=O)[N-]S(=O)(=O)C(F)(F)F)(F)F","-","-","AUTO_195","C1379_A0048","A133072","-","-","-","-","-","425.0","Celsius","-","-","-","-","425.0","Celsius","-","-","","-",""
"CCCCCCCCCC[N+]=1N=CN(C1)[C@@H](F)C.FC(S(=O)(=O)[O-])(F)F","-","-","AUTO_196","C1379_A0084","A133072","-","-","-","-","-","362.0","Celsius","-","-","-","-","362.0","Celsius","-","-","","-",""
"CCCCCCCN1N=C[N+](=C1)C[C@H](C(F)(F)F)O.FC(S(=O)(=O)[N-]S(=O)(=O)C(F)(F)F)(F)F","-","-","AUTO_197","C1388_A0048","A133072","-","-","-","-","-","315.0","Celsius","-","-","-","-","315.0","Celsius","-","-","","-",""
"CCCCCCCN1N=C[N+](=C1)C[C@H](C(F)(F)F)O.[Br-]","-","-","AUTO_198","C1388_A0004","A133072","-","-","-","-","-","221.0","Celsius","-","-","-","-","221.0","Celsius","-","-","","-",""
"CCCCCCCCCCN1N=C[N+](=C1)C[C@H](C(F)F)O.FC(S(=O)(=O)[N-]S(=O)(=O)C(F)(F)F)(F)F","-","-","AUTO_199","C1380_A0048","A133072","-","-","-","-","-","320.0","Celsius","-","-","-","-","320.0","Celsius","-","-","","-",""
"CCCC[NH+]1N=NC(=C1)CCC(=C(F)F)F.FC(S(=O)(=O)[N-]S(=O)(=O)C(F)(F)F)(F)F","-","-","AUTO_200","C1374_A0048","A133072","-","-","-","-","-","359.0","Celsius","-","-","-","-","359.0","Celsius","-","-","","-",""
"CCCCCCC[NH+]1N=NC(=C1)CCC(=C(F)F)F.FC(S(=O)(=O)[N-]S(=O)(=O)C(F)(F)F)(F)F","-","-","AUTO_201","C1390_A0048","A133072","-","-","-","-","-","350.0","Celsius","-","-","-","-","350.0","Celsius","-","-","","-",""
"CCCCCCC[NH+]1N=NC(=C1)CCC(=C(F)F)F.[Br-]","-","-","AUTO_202","C1390_A0004","A133072","-","-","-","-","-","271.0","Celsius","-","-","-","-","271.0","Celsius","-","-","","-",""
"CCCCCCC[NH+]1N=NC(=C1)CCC(=C(F)F)F.F[P-](F)(F)(F)(F)F","-","-","AUTO_203","C1390_A0011","A133072","-","-","-","-","-","350.0","Celsius","-","-","-","-","350.0","Celsius","-","-","","-",""
"CCCCCCCCCC[NH+]1N=NC(=C1)CCC(=C(F)F)F.[Br-]","-","-","AUTO_204","C1522_A0004","A133072","-","-","-","-","-","286.0","Celsius","-","-","-","-","286.0","Celsius","-","-","","-",""
"CCCCN1N=C[N+](=C1)CCCCS(=O)(=O)O.FC(S(=O)(=O)[O-])(F)F","-","-","AUTO_205","C1375_A0084","A133072","-","-","-","-","-","333.0","Celsius","-","-","-","-","333.0","Celsius","-","-","","-",""
"CCCCCCCN1N=C[N+](=C1)CCCCS(=O)(=O)O.FC(S(=O)(=O)[N-]S(=O)(=O)C(F)(F)F)(F)F","-","-","AUTO_206","C1391_A0048","A133072","-","-","-","-","-","408.0","Celsius","-","-","-","-","408.0","Celsius","-","-","","-",""
"CCCCCCCN1N=C[N+](=C1)CCCCS(=O)(=O)O.FC(S(=O)(=O)[O-])(F)F","-","-","AUTO_207","C1391_A0084","A133072","-","-","-","-","-","361.0","Celsius","-","-","-","-","361.0","Celsius","-","-","","-",""
"CCCCN1N=C[N+](=C1)C(=O)C(C(C(C(=O)O)(F)F)(F)F)(F)F.FC(S(=O)(=O)[O-])(F)F","-","-","AUTO_208","C1373_A0084","A133072","-","-","-","-","-","254.0","Celsius","-","-","-","-","254.0","Celsius","-","-","","-",""
"CCCCCCCN1N=C[N+](=C1)C(=O)C(C(C(C(=O)O)(F)F)(F)F)(F)F.FC(S(=O)(=O)[O-])(F)F","-","-","AUTO_209","C1387_A0084","A133072","-","-","-","-","-","254.0","Celsius","-","-","-","-","254.0","Celsius","-","-","","-",""
"C[N+]=1C=NN(C1)C.Cl(=O)(=O)(=O)[O-]","-","-","AUTO_210","C0593_A0051","A133072","-","-","-","-","-","97.0","Celsius","-","-","-","-","97.0","Celsius","-","-","","-",""
"C[N+]=1C=NN(C1)C.[N+](=O)([O-])[O-]","-","-","AUTO_211","C0593_A0090","A133072","-","-","-","-","-","160.0","Celsius","-","-","-","-","160.0","Celsius","-","-","","-",""
"C[N+]1=CN(C=N1)N.Cl(=O)(=O)(=O)[O-]","-","-","AUTO_212","C0391_A0051","A133072","-","-","-","-","-","259.0","Celsius","-","-","-","-","259.0","Celsius","-","-","","-",""
"C[N+]1=CN(C=N1)N.[N+](=O)([O-])[O-]","-","-","AUTO_213","C0391_A0090","A133072","-","-","-","-","-","221.0","Celsius","-","-","-","-","221.0","Celsius","-","-","","-",""
"C[N+]1=CN(C=N1)N.[N-]=[N+]=[N-]","-","-","AUTO_214","C0391_A0073","A133072","-","-","-","-","-","129.0","Celsius","-","-","-","-","129.0","Celsius","-","-","","-",""
"[N-]=[N+]=NC1=N[NH+](C=N1)C.Cl(=O)(=O)(=O)[O-]","-","-","AUTO_215","C0125_A0051","A133072","-","-","-","-","-","147.0","Celsius","-","-","-","-","147.0","Celsius","-","-","","-",""
"[N-]=[N+]=NC1=N[NH+](C=N1)C.[N+](=O)([O-])[O-]","-","-","AUTO_216","C0125_A0090","A133072","-","-","-","-","-","139.0","Celsius","-","-","-","-","139.0","Celsius","-","-","","-",""
"[N-]=[N+]=NC1=N[NH+](C=N1)C.[N+](=O)([O-])C1(N=NN=N1)C(=O)[O-]","-","-","AUTO_217","C0125_A0019","A133072","-","-","-","-","-","141.0","Celsius","-","-","-","-","141.0","Celsius","-","-","","-",""
"[N-]=[N+]=NC1=N[NH+](C=N1)C.[N+](=O)([O-])C=1N=C(NC1[N+](=O)[O-])C(=O)[O-]","-","-","AUTO_218","C0125_A0035","A133072","-","-","-","-","-","145.0","Celsius","-","-","-","-","145.0","Celsius","-","-","","-",""
"[N-]=[N+]=NC1=N[NH2+]C(=N1)C.[N+](=O)([O-])[O-]","-","-","AUTO_219","C0890_A0090","A133072","-","-","-","-","-","136.0","Celsius","-","-","-","-","136.0","Celsius","-","-","","-",""
"[N-]=[N+]=NC1=N[NH2+]C=N1.Cl(=O)(=O)(=O)[O-]","-","-","AUTO_220","C0689_A0051","A133072","-","-","-","-","-","154.0","Celsius","-","-","-","-","154.0","Celsius","-","-","","-",""
"[N-]=[N+]=NC1=N[NH2+]C=N1.[N+](=O)([O-])[O-]","-","-","AUTO_221","C0689_A0090","A133072","-","-","-","-","-","174.0","Celsius","-","-","-","-","174.0","Celsius","-","-","","-",""
"[N-]=[N+]=NC1=N[NH2+]C=N1.[N+](=O)([O-])C1(N=NN=N1)C(=O)[O-]","-","-","AUTO_222","C0689_A0019","A133072","-","-","-","-","-","161.0","Celsius","-","-","-","-","161.0","Celsius","-","-","","-",""
"[N-]=[N+]=NC1=N[NH2+]C=N1.[N+](=O)([O-])C=1N=C(NC1[N+](=O)[O-])C(=O)[O-]","-","-","AUTO_223","C0689_A0035","A133072","-","-","-","-","-","158.0","Celsius","-","-","-","-","158.0","Celsius","-","-","","-",""
"[N-]=[N+]=NC1=NC(=N[NH2+]1)N=[N+]=[N-].[N+](=O)([O-])[O-]","-","-","AUTO_224","C0771_A0090","A133072","-","-","-","-","-","136.0","Celsius","-","-","-","-","136.0","Celsius","-","-","","-",""
"[N-]=[N+]=NC1=N[N+](=CN1C)C.Cl(=O)(=O)(=O)[O-]","-","-","AUTO_225","C0175_A0051","A133072","-","-","-","-","-","147.0","Celsius","-","-","-","-","147.0","Celsius","-","-","","-",""
"[N-]=[N+]=NC1=N[N+](=CN1C)C.[N+](=O)([O-])[O-]","-","-","AUTO_226","C0175_A0090","A133072","-","-","-","-","-","129.0","Celsius","-","-","-","-","129.0","Celsius","-","-","","-",""
"CCCN1N=C[N+](=C1)CCCCC(C(S(F)(F)(F)(F)F)(F)F)(F)F.FC(S(=O)(=O)[N-]S(=O)(=O)C(F)(F)F)(F)F","-","-","AUTO_227","C0781_A0048","A133072","-","-","-","-","-","300.0","Celsius","-","-","-","-","300.0","Celsius","-","-","","-",""
"N[NH+]1C=NC=N1.Cl(=O)(=O)(=O)[O-]","-","-","AUTO_228","C0430_A0051","A133072","-","-","-","-","-","235.0","Celsius","-","-","-","-","235.0","Celsius","-","-","","-",""
"N[NH+]1C=NC=N1.[N+](=O)([O-])[O-]","-","-","AUTO_229","C0430_A0090","A133072","-","-","-","-","-","149.0","Celsius","-","-","-","-","149.0","Celsius","-","-","","-",""
"NN1C=[NH+]N=C1.[N+](=O)([O-])C1(N=NN=N1)C(=O)[O-]","-","-","AUTO_230","C0218_A0019","A133072","-","-","-","-","-","190.0","Celsius","-","-","-","-","190.0","Celsius","-","-","","-",""
"NN1C=[NH+]N=C1.[N+](=O)([O-])C=1N=C(NC1[N+](=O)[O-])C(=O)[O-]","-","-","AUTO_231","C0218_A0035","A133072","-","-","-","-","-","149.0","Celsius","-","-","-","-","149.0","Celsius","-","-","","-",""
"NN1C=[NH+]N=C1.[O-]C(=O)[C@@]1(N=NC=N1)[N+](=O)[O-]","-","-","AUTO_232","C0218_A0133","A133072","-","-","-","-","-","198.0","Celsius","-","-","-","-","198.0","Celsius","-","-","","-",""
"NN1C=[NH+]N=C1.Cl(=O)(=O)(=O)[O-]","-","-","AUTO_233","C0218_A0051","A133072","-","-","-","-","-","208.0","Celsius","-","-","-","-","208.0","Celsius","-","-","","-",""
"NN1C=[NH+]N=C1.[N+](=O)([O-])[O-]","-","-","AUTO_234","C0218_A0090","A133072","-","-","-","-","-","181.0","Celsius","-","-","-","-","181.0","Celsius","-","-","","-",""
"CN1C=[N+](N=C1)N.Cl(=O)(=O)(=O)[O-]","-","-","AUTO_235","C0326_A0051","A133072","-","-","-","-","-","253.0","Celsius","-","-","-","-","253.0","Celsius","-","-","","-",""
"CN1C=[N+](N=C1)N.[N+](=O)([O-])[O-]","-","-","AUTO_236","C0326_A0090","A133072","-","-","-","-","-","217.0","Celsius","-","-","-","-","217.0","Celsius","-","-","","-",""
"N[NH+]1N=CN=C1N.[N+](=O)([O-])C=1N=C(NC1[N+](=O)[O-])C(=O)[O-]","-","-","AUTO_237","C0007_A0035","A133072","-","-","-","-","-","165.0","Celsius","-","-","-","-","165.0","Celsius","-","-","","-",""
"C1=NC=N[NH2+]1.[N+](=O)([O-])C=1N=C(NC1[N+](=O)[O-])C(=O)[O-]","-","-","AUTO_238","C0442_A0035","A133072","-","-","-","-","-","165.0","Celsius","-","-","-","-","165.0","Celsius","-","-","","-",""
"C[NH+]1C=NC=N1.[N+](=O)([O-])C=1N=C(NC1[N+](=O)[O-])C(=O)[O-]","-","-","AUTO_239","C0058_A0035","A133072","-","-","-","-","-","150.0","Celsius","-","-","-","-","150.0","Celsius","-","-","","-",""
"CCCC[N+]1=NN(C=2C1=CC=CC2)CC.[Br-]","-","-","AUTO_240","C1039_A0004","A133072","-","-","-","-","-","175.0","Celsius","-","-","-","-","175.0","Celsius","-","-","","-",""
"CCCC[N+]1=NN(C=2C1=CC=CC2)CC.F[B-](F)(F)F","-","-","AUTO_241","C1039_A0020","A133072","-","-","-","-","-","316.0","Celsius","-","-","-","-","316.0","Celsius","-","-","","-",""
"CCCC[N+]1=NN(C=2C1=CC=CC2)CC.F[P-](F)(F)(F)(F)F","-","-","AUTO_242","C1039_A0011","A133072","-","-","-","-","-","345.0","Celsius","-","-","-","-","345.0","Celsius","-","-","","-",""
"CCCCN1N=[N+](C=2C1=CC=CC2)CCCC.[Br-]","-","-","AUTO_243","C0322_A0004","A133072","-","-","-","-","-","170.0","Celsius","-","-","-","-","170.0","Celsius","-","-","","-",""
"CCCCN1N=[N+](C=2C1=CC=CC2)CCCC.F[B-](F)(F)F","-","-","AUTO_244","C0322_A0020","A133072","-","-","-","-","-","280.0","Celsius","-","-","-","-","280.0","Celsius","-","-","","-",""
"CCCCN1N=[N+](C=2C1=CC=CC2)CCCC.F[P-](F)(F)(F)(F)F","-","-","AUTO_245","C0322_A0011","A133072","-","-","-","-","-","319.0","Celsius","-","-","-","-","319.0","Celsius","-","-","","-",""
"FCCC[N+]=1N=C(N(C1C)C)C(F)(F)F.[I-]","-","-","AUTO_246","C1003_A0069","A133072","-","-","-","-","-","250.0","Celsius","-","-","-","-","250.0","Celsius","-","-","","-",""
"FCCC[N+]=1N=C(N(C1C)C)C(F)(F)F.FC(S(=O)(=O)[N-]S(=O)(=O)C(F)(F)F)(F)F","-","-","AUTO_247","C1003_A0048","A133072","-","-","-","-","-","323.0","Celsius","-","-","-","-","323.0","Celsius","-","-","","-",""
"CN1N=C([N+](=C1C)C)C(C(C(C(C(C(C(C(F)(F)F)(F)F)(F)F)(F)F)(F)F)(F)F)(F)F)(F)F.Cl(=O)(=O)(=O)[O-]","-","-","AUTO_248","C0277_A0051","A133072","-","-","-","-","-","294.0","Celsius","-","-","-","-","294.0","Celsius","-","-","","-",""
"CN1N=C([N+](=C1C)C)C(C(C(C(C(C(C(C(F)(F)F)(F)F)(F)F)(F)F)(F)F)(F)F)(F)F)(F)F.F[B-](F)(F)F","-","-","AUTO_249","C0277_A0020","A133072","-","-","-","-","-","306.0","Celsius","-","-","-","-","306.0","Celsius","-","-","","-",""
"CN1N=C([N+](=C1C)C)C(C(C(C(C(C(C(C(F)(F)F)(F)F)(F)F)(F)F)(F)F)(F)F)(F)F)(F)F.FC(S(=O)(=O)[N-]S(=O)(=O)C(F)(F)F)(F)F","-","-","AUTO_250","C0277_A0048","A133072","-","-","-","-","-","313.0","Celsius","-","-","-","-","313.0","Celsius","-","-","","-",""
"C[N+]=1N=C(N(C1C)C)C(F)(F)F.Cl(=O)(=O)(=O)[O-]","-","-","AUTO_251","C0801_A0051","A133072","-","-","-","-","-","270.0","Celsius","-","-","-","-","270.0","Celsius","-","-","","-",""
"C[N+]=1N=C(N(C1C)C)C(F)(F)F.F[B-](F)(F)F","-","-","AUTO_252","C0801_A0020","A133072","-","-","-","-","-","326.0","Celsius","-","-","-","-","326.0","Celsius","-","-","","-",""
"C[N+]=1N=C(N(C1C)C)C(F)(F)F.FC(S(=O)(=O)[N-]S(=O)(=O)C(F)(F)F)(F)F","-","-","AUTO_253","C0801_A0048","A133072","-","-","-","-","-","368.0","Celsius","-","-","-","-","368.0","Celsius","-","-","","-",""
"C[N+]=1N=C(N(C1C)C)C(F)(F)F.FC(S(=O)(=O)[O-])(F)F","-","-","AUTO_254","C0801_A0084","A133072","-","-","-","-","-","324.0","Celsius","-","-","-","-","324.0","Celsius","-","-","","-",""
"CN1C=C[N+](=N1)N.[N+](=O)([O-])[O-]","-","-","AUTO_255","C0902_A0090","A133072","-","-","-","-","-","185.0","Celsius","-","-","-","-","185.0","Celsius","-","-","","-",""
"CN1C=C[N+](=N1)N.[N-]=[N+]=[N-]","-","-","AUTO_256","C0902_A0073","A133072","-","-","-","-","-","156.0","Celsius","-","-","-","-","156.0","Celsius","-","-","","-",""
"CCN1C=C[N+](=N1)N.[N+](=O)([O-])[O-]","-","-","AUTO_257","C0298_A0090","A133072","-","-","-","-","-","165.0","Celsius","-","-","-","-","165.0","Celsius","-","-","","-",""
"CCCN1C=C[N+](=N1)N.[N+](=O)([O-])[O-]","-","-","AUTO_258","C0154_A0090","A133072","-","-","-","-","-","165.0","Celsius","-","-","-","-","165.0","Celsius","-","-","","-",""
"C/C=C/[N+]=1C=CN(N1)N.[N+](=O)([O-])[O-]","-","-","AUTO_259","C1370_A0090","A133072","-","-","-","-","-","135.0","Celsius","-","-","-","-","135.0","Celsius","-","-","","-",""