"SMILES","CASRN","EXTERNALID","N","NAME","ARTICLEID","PUBMEDID","PAGE","TABLE","Melting Point","UNIT {Melting Point}","Decomposition","UNIT {Decomposition}","Glass-transition temperature (Tg)","UNIT {Glass-transition temperature (Tg)}","Melting Point {measured, converted}","UNIT {Melting Point}","Decomposition {measured, converted}","UNIT {Decomposition}","Glass-transition temperature (Tg) {measured, converted}","UNIT {Glass-transition temperature (Tg)}","weight loss","UNIT {weight loss}","Solvent"
"CCCCCCCCCCCC[N+]1=C(SC[C@H]1CC)C(C)C.F[P-](F)(F)(F)(F)F","-","-","AUTO_482","C0681_A0011","A132065","-","-","-","42.0","Celsius","-","-","-","-","42.0","Celsius","-","-","-","-","","-",""
"C[S+](C)C.F[B-](F)(F)F","-","-","AUTO_483","C0310_A0020","A132065","-","-","-","217.0","Celsius","-","-","-","-","217.0","Celsius","-","-","-","-","","-",""
"C[S+](C)C.C(F)(F)(F)S(=O)(=O)[N-]S(=O)(=O)C(F)(F)F","-","-","AUTO_484","C0310_A0048","A132065","-","-","-","45.0","Celsius","-","-","-","-","45.0","Celsius","-","-","-","-","","-",""
"C[S+](C)C.C(#N)[N-]C#N","-","-","AUTO_485","C0310_A0056","A132065","-","-","-","-1.0","Celsius","-","-","-","-","-1.0","Celsius","-","-","-","-","","-",""
"C[S+](C)C.FC(F)(F)C(=O)[N-]S(=O)(=O)C(F)(F)F","-","-","AUTO_486","C0310_A0034","A132065","-","-","-","32.0","Celsius","-","-","-","-","32.0","Celsius","-","-","-","-","","-",""
"CC[S+](CC)CC.FC(F)(F)C(=O)[N-]S(=O)(=O)C(F)(F)F","-","-","AUTO_487","C0598_A0034","A132065","-","-","-","32.0","Celsius","-","-","-","-","32.0","Celsius","-","-","-","-","","-",""
"CCCC[S+](CCCC)CCCC.C(F)(F)(F)S(=O)(=O)[N-]S(=O)(=O)C(F)(F)F","-","-","AUTO_488","C0913_A0048","A132065","-","-","-","-8.0","Celsius","-","-","-","-","-8.0","Celsius","-","-","-","-","","-",""
"CC[S+](C)C.C(#N)[N-]C#N","-","-","AUTO_489","C0729_A0056","A132065","-","-","-","-28.0","Celsius","-","-","-","-","-28.0","Celsius","-","-","-","-","","-",""
"C[N+](C)(C)C.C(F)(F)(F)S(=O)(=O)[N-]S(=O)(=O)C(F)(F)F","-","-","AUTO_490","C0985_A0048","A132065","-","-","-","136.0","Celsius","-","-","-","-","136.0","Celsius","-","-","-","-","","-",""
"CC[N+](C)(C)C.C(F)(F)(F)S(=O)(=O)[N-]S(=O)(=O)C(F)(F)F","-","-","AUTO_491","C0767_A0048","A132065","-","-","-","105.0","Celsius","-","-","-","-","105.0","Celsius","-","-","-","-","","-",""
"CC[N+](C)(C)C.FC(F)(F)C(=O)[N-]S(=O)(=O)C(F)(F)F","-","-","AUTO_492","C0767_A0034","A132065","-","-","-","-10.0","Celsius","-","-","-","-","-10.0","Celsius","-","-","-","-","","-",""
"COC[N+](C)(C)C.F[B-](F)(F)F","-","-","AUTO_493","C0284_A0020","A132065","-","-","-","46.0","Celsius","-","-","-","-","46.0","Celsius","-","-","-","-","","-",""
"COC[N+](C)(C)C.C(F)(F)(F)S(=O)(=O)[N-]S(=O)(=O)C(F)(F)F","-","-","AUTO_494","C0284_A0048","A132065","-","-","-","5.0","Celsius","-","-","-","-","5.0","Celsius","-","-","-","-","","-",""
"CCC[N+](C)(C)C.C(F)(F)(F)S(=O)(=O)[N-]S(=O)(=O)C(F)(F)F","-","-","AUTO_495","C0243_A0048","A132065","-","-","-","19.0","Celsius","-","-","-","-","19.0","Celsius","-","-","-","-","","-",""
"CCC[N+](C)(C)C.FC(F)(F)C(=O)[N-]S(=O)(=O)C(F)(F)F","-","-","AUTO_496","C0243_A0034","A132065","-","-","-","10.0","Celsius","-","-","-","-","10.0","Celsius","-","-","-","-","","-",""
"CCC[N+](C)(C)C.FC(F)(F)C(F)(F)S(=O)(=O)[N-]S(=O)(=O)C(F)(F)F","-","-","AUTO_497","C0243_A0074","A132065","-","-","-","19.0","Celsius","-","-","-","-","19.0","Celsius","-","-","-","-","","-",""
"CC([N+](C)(C)C)C.C(F)(F)(F)S(=O)(=O)[N-]S(=O)(=O)C(F)(F)F","-","-","AUTO_498","C0091_A0048","A132065","-","-","-","129.0","Celsius","-","-","-","-","129.0","Celsius","-","-","-","-","","-",""
"CC([N+](C)(C)C)C.FC(F)(F)C(=O)[N-]S(=O)(=O)C(F)(F)F","-","-","AUTO_499","C0091_A0034","A132065","-","-","-","29.0","Celsius","-","-","-","-","29.0","Celsius","-","-","-","-","","-",""
"CC[N+](CC)(C)C.C(F)(F)(F)S(=O)(=O)[N-]S(=O)(=O)C(F)(F)F","-","-","AUTO_500","C0441_A0048","A132065","-","-","-","96.0","Celsius","-","-","-","-","96.0","Celsius","-","-","-","-","","-",""
"C=CC[N+](C)(C)C.C(F)(F)(F)S(=O)(=O)[N-]S(=O)(=O)C(F)(F)F","-","-","AUTO_501","C0247_A0048","A132065","-","-","-","41.0","Celsius","-","-","-","-","41.0","Celsius","-","-","-","-","","-",""
"C=CC[N+](C)(C)C.FC(F)(F)C(=O)[N-]S(=O)(=O)C(F)(F)F","-","-","AUTO_502","C0247_A0034","A132065","-","-","-","-3.0","Celsius","-","-","-","-","-3.0","Celsius","-","-","-","-","","-",""
"C#CC[N+](C)(C)C.C(F)(F)(F)S(=O)(=O)[N-]S(=O)(=O)C(F)(F)F","-","-","AUTO_503","C0717_A0048","A132065","-","-","-","45.0","Celsius","-","-","-","-","45.0","Celsius","-","-","-","-","","-",""
"COC=C([NH+](C)C)C.F[B-](F)(F)F","-","-","AUTO_504","C0982_A0020","A132065","-","-","-","-16.0","Celsius","-","-","-","-","-16.0","Celsius","-","-","-","-","","-",""
"COC=C([NH+](C)C)C.O=C1O[B-]2(OC1=O)OC(=O)C(=O)O2","-","-","AUTO_505","C0982_A0061","A132065","-","-","-","51.0","Celsius","-","-","-","-","51.0","Celsius","-","-","-","-","","-",""
"CCC[N+](CC)(C)C.C(F)(F)(F)S(=O)(=O)[N-]S(=O)(=O)C(F)(F)F","-","-","AUTO_506","C0231_A0048","A132065","-","-","-","-14.0","Celsius","-","-","-","-","-14.0","Celsius","-","-","-","-","","-",""
"CC[N+](CC)(CC)C.C(F)(F)(F)S(=O)(=O)[N-]S(=O)(=O)C(F)(F)F","-","-","AUTO_507","C0597_A0048","A132065","-","-","-","129.0","Celsius","-","-","-","-","129.0","Celsius","-","-","-","-","","-",""
"CC[N+](CC)(CC)C.FC(F)(F)C(=O)[N-]S(=O)(=O)C(F)(F)F","-","-","AUTO_508","C0597_A0034","A132065","-","-","-","20.0","Celsius","-","-","-","-","20.0","Celsius","-","-","-","-","","-",""
"CC[N+](CC)(CC)C.O=C1[N-]S(=O)(=O)C2=CC=CC=C12","-","-","AUTO_509","C0597_A0007","A132065","-","-","-","26.0","Celsius","-","-","-","-","26.0","Celsius","-","-","-","-","","-",""
"CCOC=C([NH+](C)C)C.O=C1O[B-]2(OC1=O)OC(=O)C(=O)O2","-","-","AUTO_510","C0595_A0061","A132065","-","-","-","47.0","Celsius","-","-","-","-","47.0","Celsius","-","-","-","-","","-",""
"COCC[N+](CC)(C)C.O=C1O[B-]2(OC1=O)OC(=O)C(=O)O2","-","-","AUTO_511","C0918_A0061","A132065","-","-","-","48.0","Celsius","-","-","-","-","48.0","Celsius","-","-","-","-","","-",""
"CC[N+](CC)(CC)CC.C(F)(F)(F)S(=O)(=O)[N-]S(=O)(=O)C(F)(F)F","-","-","AUTO_512","C0687_A0048","A132065","-","-","-","105.0","Celsius","-","-","-","-","105.0","Celsius","-","-","-","-","","-",""
"CC[N+](CC)(CC)CC.FC(F)(F)C(F)(F)S(=O)(=O)[N-]S(=O)(=O)C(F)(F)C(F)(F)F","-","-","AUTO_513","C0687_A0067","A132065","-","-","-","83.0","Celsius","-","-","-","-","83.0","Celsius","-","-","-","-","","-",""
"CC[N+](CC)(CC)CC.FC(F)(F)C(=O)[N-]S(=O)(=O)C(F)(F)F","-","-","AUTO_514","C0687_A0034","A132065","-","-","-","20.0","Celsius","-","-","-","-","20.0","Celsius","-","-","-","-","","-",""
"CC[N+](CC)(CC)CC.FC(F)(F)C(F)(F)S(=O)(=O)[N-]S(=O)(=O)C(F)(F)F","-","-","AUTO_515","C0687_A0074","A132065","-","-","-","69.0","Celsius","-","-","-","-","69.0","Celsius","-","-","-","-","","-",""
"CC[N+](CC)(CC)CC.FC(COS(=O)(=O)[O-])(F)F","-","-","AUTO_516","C0687_A0080","A132065","-","-","-","5.0","Celsius","-","-","-","-","5.0","Celsius","-","-","-","-","","-",""
"CC[N+](CC)(CC)CC.FC(COS(=O)(=O)[O-])(C(F)F)F","-","-","AUTO_517","C0687_A0038","A132065","-","-","-","-9.0","Celsius","-","-","-","-","-9.0","Celsius","-","-","-","-","","-",""
"CC[N+](CC)(CC)CC.FC(COS(=O)(=O)[O-])(C(C(C(F)F)(F)F)(F)F)F","-","-","AUTO_518","C0687_A0078","A132065","-","-","-","-13.0","Celsius","-","-","-","-","-13.0","Celsius","-","-","-","-","","-",""
"CC[N+](CC)(CC)CC.[C-](S(=O)(=O)C(F)(F)F)(S(=O)(=O)C(F)(F)F)S(=O)(=O)C(F)(F)F","-","-","AUTO_519","C0687_A0003","A132065","-","-","-","46.0","Celsius","-","-","-","-","46.0","Celsius","-","-","-","-","","-",""
"CCCC[N+](CC)(C)C.F[B-](F)(F)F","-","-","AUTO_520","C0025_A0020","A132065","-","-","-","158.0","Celsius","-","-","-","-","158.0","Celsius","-","-","-","-","","-",""
"CCCC[N+](CC)(C)C.C(F)(F)(F)S(=O)(=O)[N-]S(=O)(=O)C(F)(F)F","-","-","AUTO_521","C0025_A0048","A132065","-","-","-","-8.0","Celsius","-","-","-","-","-8.0","Celsius","-","-","-","-","","-",""
"CCCC[N+](CCC)(C)C.C(F)(F)(F)S(=O)(=O)[N-]S(=O)(=O)C(F)(F)F","-","-","AUTO_522","C0156_A0048","A132065","-","-","-","15.0","Celsius","-","-","-","-","15.0","Celsius","-","-","-","-","","-",""
"CCCC[N+](CCC)(C)C.C(#N)[C-](C#N)C#N","-","-","AUTO_523","C0156_A0055","A132065","-","-","-","7.0","Celsius","-","-","-","-","7.0","Celsius","-","-","-","-","","-",""
"CCCCCC[N+](C)(C)C.F[B-](F)(F)F","-","-","AUTO_524","C0709_A0020","A132065","-","-","-","126.0","Celsius","-","-","-","-","126.0","Celsius","-","-","-","-","","-",""
"CCCCCC[N+](C)(C)C.C(F)(F)(F)S(=O)(=O)[N-]S(=O)(=O)C(F)(F)F","-","-","AUTO_525","C0709_A0048","A132065","-","-","-","27.0","Celsius","-","-","-","-","27.0","Celsius","-","-","-","-","","-",""
"CC[N+](C(C)C)(C(C)C)C.C(F)(F)(F)S(=O)(=O)[N-]S(=O)(=O)C(F)(F)F","-","-","AUTO_526","C1011_A0048","A132065","-","-","-","140.0","Celsius","-","-","-","-","140.0","Celsius","-","-","-","-","","-",""
"CC[N+](C(C)C)(C(C)C)CC.C(F)(F)(F)S(=O)(=O)[N-]S(=O)(=O)C(F)(F)F","-","-","AUTO_527","C0907_A0048","A132065","-","-","-","148.0","Celsius","-","-","-","-","148.0","Celsius","-","-","-","-","","-",""
"CCCCCCCC[N+](C)(C)C.C(F)(F)(F)S(=O)(=O)[N-]S(=O)(=O)C(F)(F)F","-","-","AUTO_528","C0973_A0048","A132065","-","-","-","5.0","Celsius","-","-","-","-","5.0","Celsius","-","-","-","-","","-",""
"CCC(C[N+](CC)(CC)CC)C.[Br-]","-","-","AUTO_529","C0910_A0004","A132065","-","-","-","100.0","Celsius","-","-","-","-","100.0","Celsius","-","-","-","-","","-",""
"CCC[N+](CCC)(CCC)CCC.C(F)(F)(F)S(=O)(=O)[N-]S(=O)(=O)C(F)(F)F","-","-","AUTO_530","C0656_A0048","A132065","-","-","-","105.0","Celsius","-","-","-","-","105.0","Celsius","-","-","-","-","","-",""
"CCC[N+](CCC)(CCC)CCC.O=C1[N-]S(=O)(=O)C2=CC=CC=C12","-","-","AUTO_531","C0656_A0007","A132065","-","-","-","96.0","Celsius","-","-","-","-","96.0","Celsius","-","-","-","-","","-",""
"CCCCCC[N+](CC)(CC)CC.C(F)(F)(F)S(=O)(=O)[N-]S(=O)(=O)C(F)(F)F","-","-","AUTO_532","C0352_A0048","A132065","-","-","-","20.0","Celsius","-","-","-","-","20.0","Celsius","-","-","-","-","","-",""
"CCCCCC[N+](CC)(CC)CC.CS(=O)(=O)[N-]S(C)(=O)=O","-","-","AUTO_533","C0352_A0032","A132065","-","-","-","-54.0","Celsius","-","-","-","-","-54.0","Celsius","-","-","-","-","","-",""
"CCCCCC[N+](CC)(CC)CC.S(C)(=O)(=O)[O-]","-","-","AUTO_534","C0352_A0054","A132065","-","-","-","62.0","Celsius","-","-","-","-","62.0","Celsius","-","-","-","-","","-",""
"CCCCCC[N+](CC)(CC)CC.S(=O)(=O)([O-])C1=CC=C(C)C=C1","-","-","AUTO_535","C0352_A0030","A132065","-","-","-","109.0","Celsius","-","-","-","-","109.0","Celsius","-","-","-","-","","-",""
"CCCC[N+](CCCC)(CCCC)CCCC.C(F)(F)(F)S(=O)(=O)[N-]S(=O)(=O)C(F)(F)F","-","-","AUTO_536","C0297_A0048","A132065","-","-","-","90.0","Celsius","-","-","-","-","90.0","Celsius","-","-","-","-","","-",""
"CCCC[N+](CCCC)(CCCC)CCCC.FC(COS(=O)(=O)[O-])(F)F","-","-","AUTO_537","C0297_A0080","A132065","-","-","-","80.0","Celsius","-","-","-","-","80.0","Celsius","-","-","-","-","","-",""
"CCCC[N+](CCCC)(CCCC)CCCC.FC(COS(=O)(=O)[O-])(C(F)F)F","-","-","AUTO_538","C0297_A0038","A132065","-","-","-","-4.0","Celsius","-","-","-","-","-4.0","Celsius","-","-","-","-","","-",""
"CCCC[N+](CCCC)(CCCC)CCCC.FC(COS(=O)(=O)[O-])(C(C(C(F)F)(F)F)(F)F)F","-","-","AUTO_539","C0297_A0078","A132065","-","-","-","-8.0","Celsius","-","-","-","-","-8.0","Celsius","-","-","-","-","","-",""
"CCCC[N+](CCCC)(CCCC)CCCC.[C-](S(=O)(=O)C(F)(F)F)(S(=O)(=O)C(F)(F)F)S(=O)(=O)C(F)(F)F","-","-","AUTO_540","C0297_A0003","A132065","-","-","-","59.0","Celsius","-","-","-","-","59.0","Celsius","-","-","-","-","","-",""
"CCCCCC[N+](CCCC)(CCCC)CCCC.C(#N)[N-]C#N","-","-","AUTO_541","C0319_A0056","A132065","-","-","-","-43.0","Celsius","-","-","-","-","-43.0","Celsius","-","-","-","-","","-",""
"CCCCCC[N+](CCCC)(CCCC)CCCC.S(=O)(=O)([O-])C1=CC=C(C)C=C1","-","-","AUTO_542","C0319_A0030","A132065","-","-","-","50.0","Celsius","-","-","-","-","50.0","Celsius","-","-","-","-","","-",""
"CCCCC[N+](CCCCC)(CCCCC)CCCCC.C(F)(F)(F)S(=O)(=O)[N-]S(=O)(=O)C(F)(F)F","-","-","AUTO_543","C0832_A0048","A132065","-","-","-","25.0","Celsius","-","-","-","-","25.0","Celsius","-","-","-","-","","-",""
"CCCCC[N+](CCCCC)(CCCCC)CCCCC.FC(F)(F)C(=O)[N-]S(=O)(=O)C(F)(F)F","-","-","AUTO_544","C0832_A0034","A132065","-","-","-","16.0","Celsius","-","-","-","-","16.0","Celsius","-","-","-","-","","-",""
"CCCCC[N+](CCCCC)(CCCCC)CCCCC.FC(F)(F)C(F)(F)S(=O)(=O)[N-]S(=O)(=O)C(F)(F)F","-","-","AUTO_545","C0832_A0074","A132065","-","-","-","25.0","Celsius","-","-","-","-","25.0","Celsius","-","-","-","-","","-",""
"CCCCCC[N+](CCCCCC)(CCCCCC)CCCCCC.C(F)(F)(F)S(=O)(=O)[N-]S(=O)(=O)C(F)(F)F","-","-","AUTO_546","C0234_A0048","A132065","-","-","-","-8.0","Celsius","-","-","-","-","-8.0","Celsius","-","-","-","-","","-",""
"CCCCCC[N+](CCCCCC)(CCCCCC)CCCCCC.C(C1=CC=CC=C1)(=O)[O-]","-","-","AUTO_547","C0234_A0031","A132065","-","-","-","-50.0","Celsius","-","-","-","-","-50.0","Celsius","-","-","-","-","","-",""
"CCCCCCCC[N+](CCCCCCCC)(CCCCCCCC)CCC.[Br-]","-","-","AUTO_548","C0020_A0004","A132065","-","-","-","74.0","Celsius","-","-","-","-","74.0","Celsius","-","-","-","-","","-",""
"CCCCCCC[N+](CCCCCCC)(CCCCCCC)CCCCCCC.[Cl-]","-","-","AUTO_549","C0565_A0033","A132065","-","-","-","-9.0","Celsius","-","-","-","-","-9.0","Celsius","-","-","-","-","","-",""
"CCCCCCC[N+](CCCCCCC)(CCCCCCC)CCCCCCC.C(F)(F)(F)S(=O)(=O)[N-]S(=O)(=O)C(F)(F)F","-","-","AUTO_550","C0565_A0048","A132065","-","-","-","11.0","Celsius","-","-","-","-","11.0","Celsius","-","-","-","-","","-",""
"CCCCCCCCCCCCCC[N+](CCCCC)(CCCCC)CCCCC.[Br-]","-","-","AUTO_551","C0034_A0004","A132065","-","-","-","63.0","Celsius","-","-","-","-","63.0","Celsius","-","-","-","-","","-",""
"CCCCCCCC[N+](CCCCCCCC)(CCCCCCCC)CCCCCCCC.C(F)(F)(F)S(=O)(=O)[N-]S(=O)(=O)C(F)(F)F","-","-","AUTO_552","C1093_A0048","A132065","-","-","-","31.0","Celsius","-","-","-","-","31.0","Celsius","-","-","-","-","","-",""
"CCCCCCCCCCCC[N+](CCCCCCCCCCCC)(CCCCCCCCCCCC)C.[Br-]","-","-","AUTO_553","C0512_A0004","A132065","-","-","-","75.0","Celsius","-","-","-","-","75.0","Celsius","-","-","-","-","","-",""
"CCCCCCCCCCCCCC[NH3+].C(F)(F)(F)S(=O)(=O)[N-]S(=O)(=O)C(F)(F)F","-","-","AUTO_554","C0079_A0048","A132065","-","-","-","31.0","Celsius","-","-","-","-","31.0","Celsius","-","-","-","-","","-",""
"CC[N+](CO[C@H]1C[C@@H](C)CC[C@@H]1C(C)C)(C)C.F[B-](F)(F)F","-","-","AUTO_555","C0446_A0020","A132065","-","-","-","163.0","Celsius","-","-","-","-","163.0","Celsius","-","-","-","-","","-",""
"C[C@@H]1CC[C@H]([C@@H](C1)OC[N+](C(C)C)(C)C)C(C)C.F[B-](F)(F)F","-","-","AUTO_556","C1138_A0020","A132065","-","-","-","205.0","Celsius","-","-","-","-","205.0","Celsius","-","-","-","-","","-",""
"C[C@@H]1CC[C@H]([C@@H](C1)OC[N+](C(C)C)(C)C)C(C)C.C(F)(F)(F)S(=O)(=O)[N-]S(=O)(=O)C(F)(F)F","-","-","AUTO_557","C1138_A0048","A132065","-","-","-","41.0","Celsius","-","-","-","-","41.0","Celsius","-","-","-","-","","-",""
"CCCC[N+](CO[C@H]1C[C@@H](C)CC[C@@H]1C(C)C)(C)C.[I-]","-","-","AUTO_558","C0394_A0069","A132065","-","-","-","82.0","Celsius","-","-","-","-","82.0","Celsius","-","-","-","-","","-",""
"CCCC[N+](CO[C@H]1C[C@@H](C)CC[C@@H]1C(C)C)(C)C.[O-]Cl(=O)(=O)=O","-","-","AUTO_559","C0394_A0051","A132065","-","-","-","78.0","Celsius","-","-","-","-","78.0","Celsius","-","-","-","-","","-",""
"CCCC[N+](CO[C@H]1C[C@@H](C)CC[C@@H]1C(C)C)(C)C.F[B-](F)(F)F","-","-","AUTO_560","C0394_A0020","A132065","-","-","-","70.0","Celsius","-","-","-","-","70.0","Celsius","-","-","-","-","","-",""
"CCCC[N+](CO[C@H]1C[C@@H](C)CC[C@@H]1C(C)C)(C)C.F[P-](F)(F)(F)(F)F","-","-","AUTO_561","C0394_A0011","A132065","-","-","-","104.0","Celsius","-","-","-","-","104.0","Celsius","-","-","-","-","","-",""
"CCCC[N+](CO[C@H]1C[C@@H](C)CC[C@@H]1C(C)C)(C)C.FC(C(=O)[O-])(F)F","-","-","AUTO_562","C0394_A0064","A132065","-","-","-","73.0","Celsius","-","-","-","-","73.0","Celsius","-","-","-","-","","-",""
"CCCCCC[N+](CO[C@H]1C[C@@H](C)CC[C@@H]1C(C)C)(C)C.F[B-](F)(F)F","-","-","AUTO_563","C0179_A0020","A132065","-","-","-","43.0","Celsius","-","-","-","-","43.0","Celsius","-","-","-","-","","-",""
"CCCCCCC[N+](CO[C@H]1C[C@@H](C)CC[C@@H]1C(C)C)(C)C.F[B-](F)(F)F","-","-","AUTO_564","C0864_A0020","A132065","-","-","-","71.0","Celsius","-","-","-","-","71.0","Celsius","-","-","-","-","","-",""
"CCCCCCCC[N+](CO[C@@H]1C[C@H](C)CC[C@H]1C(C)C)(C)C.F[B-](F)(F)F","-","-","AUTO_565","C0099_A0020","A132065","-","-","-","88.0","Celsius","-","-","-","-","88.0","Celsius","-","-","-","-","","-",""
"CCCCCCCCC[N+](CO[C@@H]1C[C@H](C)CC[C@H]1C(C)C)(C)C.F[B-](F)(F)F","-","-","AUTO_566","C0962_A0020","A132065","-","-","-","71.0","Celsius","-","-","-","-","71.0","Celsius","-","-","-","-","","-",""
"CCCCCCCCCC[N+](CO[C@H]1C[C@@H](C)CC[C@@H]1C(C)C)(C)C.F[B-](F)(F)F","-","-","AUTO_567","C0662_A0020","A132065","-","-","-","57.0","Celsius","-","-","-","-","57.0","Celsius","-","-","-","-","","-",""
"CCCCCCCCCCC[N+](CO[C@H]1C[C@@H](C)CC[C@@H]1C(C)C)(C)C.F[B-](F)(F)F","-","-","AUTO_568","C0823_A0020","A132065","-","-","-","46.0","Celsius","-","-","-","-","46.0","Celsius","-","-","-","-","","-",""
"CCCCCCCCCCCC[N+](CO[C@H]1C[C@@H](C)CC[C@@H]1C(C)C)(C)C.F[B-](F)(F)F","-","-","AUTO_569","C0840_A0020","A132065","-","-","-","43.0","Celsius","-","-","-","-","43.0","Celsius","-","-","-","-","","-",""
"C[C@H]1CC[C@@H]([C@H](C1)OC[N+](CC2=CC=CC=C2)(C)C)C(C)C.F[B-](F)(F)F","-","-","AUTO_570","C0934_A0020","A132065","-","-","-","99.0","Celsius","-","-","-","-","99.0","Celsius","-","-","-","-","","-",""
"C[C@H]1CC[C@@H]([C@H](C1)OC[N+](CC2=CC=CC=C2)(C)C)C(C)C.C(F)(F)(F)S(=O)(=O)[N-]S(=O)(=O)C(F)(F)F","-","-","AUTO_571","C0934_A0048","A132065","-","-","-","47.0","Celsius","-","-","-","-","47.0","Celsius","-","-","-","-","","-",""
"CC[N+](CO[C@H]1C[C@@H](C)CC[C@@H]1C(C)C)(CC)C.F[B-](F)(F)F","-","-","AUTO_572","C0213_A0020","A132065","-","-","-","151.0","Celsius","-","-","-","-","151.0","Celsius","-","-","-","-","","-",""
"CC[N+](CO[C@H]1C[C@@H](C)CC[C@@H]1C(C)C)(CC)CC.F[B-](F)(F)F","-","-","AUTO_573","C0686_A0020","A132065","-","-","-","126.0","Celsius","-","-","-","-","126.0","Celsius","-","-","-","-","","-",""
"CCC[N+](CC)(CC)C.F[B-](F)(F)F","-","-","AUTO_574","C0272_A0020","A132065","-","-","-","186.0","Celsius","-","-","-","-","186.0","Celsius","-","-","-","-","","-",""
"CCC[N+](CC)(CC)C.C(F)(F)(F)S(=O)(=O)[N-]S(=O)(=O)C(F)(F)F","-","-","AUTO_575","C0272_A0048","A132065","-","-","-","14.0","Celsius","-","-","-","-","14.0","Celsius","-","-","-","-","","-",""
"CCC[N+](CC)(CC)C.FC(F)(F)[B-](F)(F)F","-","-","AUTO_576","C0272_A0008","A132065","-","-","-","95.0","Celsius","-","-","-","-","95.0","Celsius","-","-","-","-","","-",""
"CCC[N+](CC)(CC)C.FC(C(F)(F)F)(F)[B-](F)(F)F","-","-","AUTO_577","C0272_A0043","A132065","-","-","-","54.0","Celsius","-","-","-","-","54.0","Celsius","-","-","-","-","","-",""
"CCC[N+](CC)(CC)C.FC(C(F)(F)[B-](F)(F)F)(C(F)(F)F)F","-","-","AUTO_578","C0272_A0009","A132065","-","-","-","57.0","Celsius","-","-","-","-","57.0","Celsius","-","-","-","-","","-",""
"CCC[N+](CC)(CC)C.FC(C(C(F)(F)[B-](F)(F)F)(F)F)(C(F)(F)F)F","-","-","AUTO_579","C0272_A0021","A132065","-","-","-","54.0","Celsius","-","-","-","-","54.0","Celsius","-","-","-","-","","-",""
"CCCC[N+](CC)(CC)C.F[B-](F)(F)F","-","-","AUTO_580","C0981_A0020","A132065","-","-","-","165.0","Celsius","-","-","-","-","165.0","Celsius","-","-","-","-","","-",""
"CCCC[N+](CC)(CC)C.C(F)(F)(F)S(=O)(=O)[N-]S(=O)(=O)C(F)(F)F","-","-","AUTO_581","C0981_A0048","A132065","-","-","-","9.0","Celsius","-","-","-","-","9.0","Celsius","-","-","-","-","","-",""
"CCCC[N+](CC)(CC)C.FC(F)(F)[B-](F)(F)F","-","-","AUTO_582","C0981_A0008","A132065","-","-","-","-3.0","Celsius","-","-","-","-","-3.0","Celsius","-","-","-","-","","-",""
"CCCC[N+](CC)(CC)C.FC(C(F)(F)F)(F)[B-](F)(F)F","-","-","AUTO_583","C0981_A0043","A132065","-","-","-","15.0","Celsius","-","-","-","-","15.0","Celsius","-","-","-","-","","-",""
"CCCC[N+](CC)(CC)C.FC(C(F)(F)[B-](F)(F)F)(C(F)(F)F)F","-","-","AUTO_584","C0981_A0009","A132065","-","-","-","50.0","Celsius","-","-","-","-","50.0","Celsius","-","-","-","-","","-",""