"SMILES","CASRN","EXTERNALID","N","NAME","ARTICLEID","PUBMEDID","PAGE","TABLE","Melting Point","UNIT {Melting Point}","Decomposition","UNIT {Decomposition}","Glass-transition temperature (Tg)","UNIT {Glass-transition temperature (Tg)}","Melting Point {measured, converted}","UNIT {Melting Point}","Decomposition {measured, converted}","UNIT {Decomposition}","Glass-transition temperature (Tg) {measured, converted}","UNIT {Glass-transition temperature (Tg)}","weight loss","UNIT {weight loss}","Solvent"
"CC[N+]=1C=CN(C1)C.FC(F)(F)C(F)(F)C(F)(F)C(F)(F)S(=O)(=O)[N-]S(=O)(=O)C(F)(F)C(F)(F)C(F)(F)C(F)(F)F","-","-","AUTO_60","C0460_A0028","A133072","-","-","-","-","-","290.0","Celsius","-","-","-","-","290.0","Celsius","-","-","","-",""
"CC[N+]=1C=CN(C1)C.F[P-](F)(F)(F)(F)F","-","-","AUTO_61","C0460_A0011","A133072","-","-","-","-","-","375.0","Celsius","-","-","-","-","375.0","Celsius","-","-","","-",""
"CC[N+]=1C=CN(C1)C.C(C(F)(F)[P-](C(C(F)(F)F)(F)F)(C(C(F)(F)F)(F)F)(F)(F)F)(F)(F)F","-","-","AUTO_62","C0460_A0071","A133072","-","-","-","-","-","300.0","Celsius","-","-","-","-","300.0","Celsius","-","-","","-",""
"CC[N+]=1C=CN(C1)C.FC(C(=O)[O-])(F)F","-","-","AUTO_63","C0460_A0064","A133072","-","-","-","-","-","172.0","Celsius","-","-","-","-","172.0","Celsius","-","-","","-",""
"CC[N+]=1C=CN(C1)C.[C-](S(=O)(=O)C(F)(F)F)(S(=O)(=O)C(F)(F)F)S(=O)(=O)C(F)(F)F","-","-","AUTO_64","C0460_A0003","A133072","-","-","-","-","-","430.0","Celsius","-","-","-","-","430.0","Celsius","-","-","","-",""
"CC[N+]=1C=CN(C1)C.FC(S(=O)(=O)[O-])(F)F","-","-","AUTO_65","C0460_A0084","A133072","-","-","-","-","-","440.0","Celsius","-","-","-","-","440.0","Celsius","-","-","","-",""
"CCC[N+]=1C=CN(C1)C.F[B-](F)(F)F","-","-","AUTO_66","C0811_A0020","A133072","-","-","-","-","-","435.0","Celsius","-","-","-","-","435.0","Celsius","-","-","","-",""
"CCC[N+]=1C=CN(C1)C.FC(F)(F)[B-](F)(F)F","-","-","AUTO_67","C0811_A0008","A133072","-","-","-","-","-","272.0","Celsius","-","-","-","-","272.0","Celsius","-","-","","-",""
"CCC[N+]=1C=CN(C1)C.FC(C(F)(F)F)(F)[B-](F)(F)F","-","-","AUTO_68","C0811_A0043","A133072","-","-","-","-","-","312.0","Celsius","-","-","-","-","312.0","Celsius","-","-","","-",""
"CCC[N+]=1C=CN(C1)C.FC(C(F)(F)[B-](F)(F)F)(C(F)(F)F)F","-","-","AUTO_69","C0811_A0009","A133072","-","-","-","-","-","298.0","Celsius","-","-","-","-","298.0","Celsius","-","-","","-",""
"CCC[N+]=1C=CN(C1)C.FC(C(C(F)(F)[B-](F)(F)F)(F)F)(C(F)(F)F)F","-","-","AUTO_70","C0811_A0021","A133072","-","-","-","-","-","305.0","Celsius","-","-","-","-","305.0","Celsius","-","-","","-",""
"CCC[N+]=1C=CN(C1)C.FC(S(=O)(=O)[N-]S(=O)(=O)C(F)(F)F)(F)F","-","-","AUTO_71","C0811_A0048","A133072","-","-","-","-","-","452.0","Celsius","-","-","-","-","452.0","Celsius","-","-","","-",""
"CCC[N+]=1C=CN(C1)C.FC(F)(F)C(F)(F)C(F)(F)C(F)(F)S(=O)(=O)[N-]S(=O)(=O)C(F)(F)C(F)(F)C(F)(F)C(F)(F)F","-","-","AUTO_72","C0811_A0028","A133072","-","-","-","-","-","300.0","Celsius","-","-","-","-","300.0","Celsius","-","-","","-",""
"CCC[N+]=1C=CN(C1)C.FC(C(C(C(F)(F)F)(F)F)(F)F)(S(=O)(=O)[O-])F","-","-","AUTO_73","C0811_A0079","A133072","-","-","-","-","-","285.0","Celsius","-","-","-","-","285.0","Celsius","-","-","","-",""
"CCC[N+]=1C=CN(C1)C.[Cl-]","-","-","AUTO_74","C0811_A0033","A133072","-","-","-","-","-","281.0","Celsius","-","-","-","-","281.0","Celsius","-","-","","-",""
"CN1C=C[N+](=C1)C(C)C.[I-]","-","-","AUTO_75","C0854_A0069","A133072","-","-","-","-","-","296.0","Celsius","-","-","-","-","296.0","Celsius","-","-","","-",""
"CN1C=C[N+](=C1)C(C)C.FC(S(=O)(=O)[N-]S(=O)(=O)C(F)(F)F)(F)F","-","-","AUTO_76","C0854_A0048","A133072","-","-","-","-","-","432.0","Celsius","-","-","-","-","432.0","Celsius","-","-","","-",""
"CN1C=C[N+](=C1)C(C)C.FC(F)(F)C(F)(F)C(F)(F)C(F)(F)S(=O)(=O)[N-]S(=O)(=O)C(F)(F)C(F)(F)C(F)(F)C(F)(F)F","-","-","AUTO_77","C0854_A0028","A133072","-","-","-","-","-","310.0","Celsius","-","-","-","-","310.0","Celsius","-","-","","-",""
"CN1C=C[N+](=C1)C(C)C.FC(C(C(C(F)(F)F)(F)F)(F)F)(S(=O)(=O)[O-])F","-","-","AUTO_78","C0854_A0079","A133072","-","-","-","-","-","310.0","Celsius","-","-","-","-","310.0","Celsius","-","-","","-",""
"CN1C=C[N+](=C1)C(C)C.F[P-](F)(F)(F)(F)F","-","-","AUTO_79","C0854_A0011","A133072","-","-","-","-","-","332.0","Celsius","-","-","-","-","332.0","Celsius","-","-","","-",""
"COCC[N+]=1C=CN(C1)C.FC(F)(F)[B-](F)(F)F","-","-","AUTO_80","C0291_A0008","A133072","-","-","-","-","-","225.0","Celsius","-","-","-","-","225.0","Celsius","-","-","","-",""
"COCC[N+]=1C=CN(C1)C.FC(C(F)(F)F)(F)[B-](F)(F)F","-","-","AUTO_81","C0291_A0043","A133072","-","-","-","-","-","288.0","Celsius","-","-","-","-","288.0","Celsius","-","-","","-",""
"CCCC[N+]=1C=CN(C1)C.[Cl-]","-","-","AUTO_82","C0505_A0033","A133072","-","-","-","-","-","254.0","Celsius","-","-","-","-","254.0","Celsius","-","-","","-",""
"CCCC[N+]=1C=CN(C1)C.[I-]","-","-","AUTO_83","C0505_A0069","A133072","-","-","-","-","-","265.0","Celsius","-","-","-","-","265.0","Celsius","-","-","","-",""
"CCCC[N+]=1C=CN(C1)C.F[B-](F)(F)F","-","-","AUTO_84","C0505_A0020","A133072","-","-","-","-","-","424.0","Celsius","-","-","-","-","424.0","Celsius","-","-","","-",""
"CCCC[N+]=1C=CN(C1)C.FC(C=1C=C(C=C(C1)C(F)(F)F)[B-](C2=CC(=CC(=C2)C(F)(F)F)C(F)(F)F)(C3=CC(=CC(=C3)C(F)(F)F)C(F)(F)F)C4=CC(=CC(=C4)C(F)(F)F)C(F)(F)F)(F)F","-","-","AUTO_85","C0505_A0006","A133072","-","-","-","-","-","245.0","Celsius","-","-","-","-","245.0","Celsius","-","-","","-",""
"CCCC[N+]=1C=CN(C1)C.FC(F)(F)[B-](F)(F)F","-","-","AUTO_86","C0505_A0008","A133072","-","-","-","-","-","238.0","Celsius","-","-","-","-","238.0","Celsius","-","-","","-",""
"CCCC[N+]=1C=CN(C1)C.C[Si](C)(CCC(F)(F)F)C1=CC=C(C=C1)[B-](C2=CC=C(C=C2)[Si](C)(C)CCC(F)(F)F)(C3=CC=C(C=C3)[Si](C)(C)CCC(F)(F)F)C4=CC=C(C=C4)[Si](C)(C)CCC(F)(F)F","-","-","AUTO_87","C0505_A0013","A133072","-","-","-","-","-","175.0","Celsius","-","-","-","-","175.0","Celsius","-","-","","-",""
"CCCC[N+]=1C=CN(C1)C.FC(C(C(C(C(F)(F)F)(F)F)(F)F)(F)F)(C(C1=CC=C(C=C1)[B-](C2=CC=C(C=C2)C(C(C(C(C(C(F)(F)F)(F)F)(F)F)(F)F)(F)F)(F)F)(C3=CC=C(C=C3)C(C(C(C(C(C(F)(F)F)(F)F)(F)F)(F)F)(F)F)(F)F)C4=CC=C(C=C4)C(C(C(C(C(C(C(F)(F)F)(F)F)(F)F)(F)F)(F)F)(F)F)(F)F)(F)F)F","-","-","AUTO_88","C0505_A0147","A133072","-","-","-","-","-","225.0","Celsius","-","-","-","-","225.0","Celsius","-","-","","-",""
"CCCC[N+]=1C=CN(C1)C.CCCCCCCC[Si](C1=CC=C(C=C1)[B-](C2=CC=C(C=C2)[Si](CCCCCCCC)(C)C)(C3=CC=C(C=C3)[Si](CCCCCCCC)(C)C)C4=CC=C(C=C4)[Si](CCCCCCCC)(C)C)(C)C","-","-","AUTO_89","C0505_A0169","A133072","-","-","-","-","-","170.0","Celsius","-","-","-","-","170.0","Celsius","-","-","","-",""
"CCCC[N+]=1C=CN(C1)C.FC(C(C(C(C(C(F)(F)F)(F)F)(F)F)(F)F)(F)F)(CC[Si](C1=CC=C(C=C1)[B-](C2=CC=C(C=C2)[Si](CCC(C(C(C(C(C(F)(F)F)(F)F)(F)F)(F)F)(F)F)(F)F)(C)C)(C3=CC=C(C=C3)[Si](CCC(C(C(C(C(C(F)(F)F)(F)F)(F)F)(F)F)(F)F)(F)F)(C)C)C4=CC=C(C=C4)[Si](CCC(C(C(C(C(C(F)(F)F)(F)F)(F)F)(F)F)(F)F)(F)F)(C)C)(C)C)F","-","-","AUTO_90","C0505_A0170","A133072","-","-","-","-","-","190.0","Celsius","-","-","-","-","190.0","Celsius","-","-","","-",""
"CCCC[N+]=1C=CN(C1)C.FC(C(F)(F)F)(F)[B-](F)(F)F","-","-","AUTO_91","C0505_A0043","A133072","-","-","-","-","-","309.0","Celsius","-","-","-","-","309.0","Celsius","-","-","","-",""
"CCCC[N+]=1C=CN(C1)C.FC(S(=O)(=O)[N-]S(=O)(=O)C(F)(F)F)(F)F","-","-","AUTO_92","C0505_A0048","A133072","-","-","-","-","-","425.0","Celsius","-","-","-","-","425.0","Celsius","-","-","","-",""
"CCCC[N+]=1C=CN(C1)C.FC(F)(F)C(F)(F)C(F)(F)C(F)(F)S(=O)(=O)[N-]S(=O)(=O)C(F)(F)C(F)(F)C(F)(F)C(F)(F)F","-","-","AUTO_93","C0505_A0028","A133072","-","-","-","-","-","320.0","Celsius","-","-","-","-","320.0","Celsius","-","-","","-",""
"CCCC[N+]=1C=CN(C1)C.[O-]S(=O)(=O)C1=CC=C2C(=C1)OCCOCCOCCOCCO2","-","-","AUTO_94","C0505_A0144","A133072","-","-","-","-","-","267.0","Celsius","-","-","-","-","267.0","Celsius","-","-","","-",""
"CCCC[N+]=1C=CN(C1)C.F[P-](F)(F)(F)(F)F","-","-","AUTO_95","C0505_A0011","A133072","-","-","-","-","-","390.0","Celsius","-","-","-","-","390.0","Celsius","-","-","","-",""
"CCCC[N+]=1C=CN(C1)C.C(C1=CC=CC=C1)(=O)[O-]","-","-","AUTO_96","C0505_A0031","A133072","-","-","-","-","-","280.0","Celsius","-","-","-","-","280.0","Celsius","-","-","","-",""
"CC(C[N+]=1C=CN(C1)C)C.FC(F)(F)C(F)(F)C(F)(F)C(F)(F)S(=O)(=O)[N-]S(=O)(=O)C(F)(F)C(F)(F)C(F)(F)C(F)(F)F","-","-","AUTO_97","C0267_A0028","A133072","-","-","-","-","-","295.0","Celsius","-","-","-","-","295.0","Celsius","-","-","","-",""
"CCCCC[N+]=1C=CN(C1)C.FC(F)(F)C(F)(F)C(F)(F)C(F)(F)S(=O)(=O)[N-]S(=O)(=O)C(F)(F)C(F)(F)C(F)(F)C(F)(F)F","-","-","AUTO_98","C0782_A0028","A133072","-","-","-","-","-","295.0","Celsius","-","-","-","-","295.0","Celsius","-","-","","-",""
"COCCOCC[N+]=1C=CN(C1)C.FC(C(F)(F)F)(F)[B-](F)(F)F","-","-","AUTO_99","C1348_A0043","A133072","-","-","-","-","-","293.0","Celsius","-","-","-","-","293.0","Celsius","-","-","","-",""
"COCCOCC[N+]=1C=CN(C1)C.FC(F)(F)[B-](F)(F)F","-","-","AUTO_100","C1348_A0008","A133072","-","-","-","-","-","238.0","Celsius","-","-","-","-","238.0","Celsius","-","-","","-",""
"CCCCCC[N+]=1C=CN(C1)C.[Cl-]","-","-","AUTO_101","C0190_A0033","A133072","-","-","-","-","-","253.0","Celsius","-","-","-","-","253.0","Celsius","-","-","","-",""
"CCCCCC[N+]=1C=CN(C1)C.F[B-](F)(F)F","-","-","AUTO_102","C0190_A0020","A133072","-","-","-","-","-","409.0","Celsius","-","-","-","-","409.0","Celsius","-","-","","-",""
"CCCCCC[N+]=1C=CN(C1)C.FC(C(F)(F)F)(F)[B-](F)(F)F","-","-","AUTO_103","C0190_A0043","A133072","-","-","-","-","-","306.0","Celsius","-","-","-","-","306.0","Celsius","-","-","","-",""
"CCCCCC[N+]=1C=CN(C1)C.FC(F)(F)[B-](F)(F)F","-","-","AUTO_104","C0190_A0008","A133072","-","-","-","-","-","197.0","Celsius","-","-","-","-","197.0","Celsius","-","-","","-",""
"CCCCCC[N+]=1C=CN(C1)C.C(C(F)(F)[P-](C(C(F)(F)F)(F)F)(C(C(F)(F)F)(F)F)(F)(F)F)(F)(F)F","-","-","AUTO_105","C0190_A0071","A133072","-","-","-","-","-","290.0","Celsius","-","-","-","-","290.0","Celsius","-","-","","-",""
"CCCCCC[N+]=1C=CN(C1)C.C(C1=CC=CC=C1)(=O)[O-]","-","-","AUTO_106","C0190_A0031","A133072","-","-","-","-","-","270.0","Celsius","-","-","-","-","270.0","Celsius","-","-","","-",""
"CN1C=C[N+](=C1)CC2=CC=CC=C2.[O-]S(=O)(=O)C1=CC=C2C(=C1)OCCOCCOCCOCCO2","-","-","AUTO_107","C0810_A0144","A133072","-","-","-","-","-","250.0","Celsius","-","-","-","-","250.0","Celsius","-","-","","-",""
"CCCCCCCC[N+]=1C=CN(C1)C.[Cl-]","-","-","AUTO_108","C0290_A0033","A133072","-","-","-","-","-","243.0","Celsius","-","-","-","-","243.0","Celsius","-","-","","-",""
"CCCCCCCC[N+]=1C=CN(C1)C.F[B-](F)(F)F","-","-","AUTO_109","C0290_A0020","A133072","-","-","-","-","-","360.0","Celsius","-","-","-","-","360.0","Celsius","-","-","","-",""
"CCCCCCCC[N+]=1C=CN(C1)C.[O-]S(=O)(=O)C1=CC=C2C(=C1)OCCOCCOCCOCCO2","-","-","AUTO_110","C0290_A0144","A133072","-","-","-","-","-","248.0","Celsius","-","-","-","-","248.0","Celsius","-","-","","-",""
"CCCCCCCC[N+]=1C=CN(C1)C.F[P-](F)(F)(F)(F)F","-","-","AUTO_111","C0290_A0011","A133072","-","-","-","-","-","376.0","Celsius","-","-","-","-","376.0","Celsius","-","-","","-",""
"CCCCCCCCCC[N+]=1C=CN(C1)C.C(#N)[N-]C#N","-","-","AUTO_112","C0515_A0056","A133072","-","-","-","-","-","270.0","Celsius","-","-","-","-","270.0","Celsius","-","-","","-",""
"CCCCCCCCCC[N+]=1C=CN(C1)C.O=C1[N-]S(=O)(=O)C2=CC=CC=C12","-","-","AUTO_113","C0515_A0007","A133072","-","-","-","-","-","251.0","Celsius","-","-","-","-","251.0","Celsius","-","-","","-",""
"CCCCCCCCCC[N+]=1C=CN(C1)C.S(=O)(=O)([O-])C1=CC=C(C)C=C1","-","-","AUTO_114","C0515_A0030","A133072","-","-","-","-","-","278.0","Celsius","-","-","-","-","278.0","Celsius","-","-","","-",""
"CCCCCCCCCC[N+]=1C=CN(C1)C.FC(C(=O)[O-])(F)F","-","-","AUTO_115","C0515_A0064","A133072","-","-","-","-","-","200.0","Celsius","-","-","-","-","200.0","Celsius","-","-","","-",""
"CCCCCCCCCCCCCC[N+]=1C=CN(C1)C.[Br-]","-","-","AUTO_116","C0665_A0004","A133072","-","-","-","-","-","273.0","Celsius","-","-","-","-","273.0","Celsius","-","-","","-",""
"COC[N+]=1C=CN(C1)C.FC(F)(F)[B-](F)(F)F","-","-","AUTO_117","C0495_A0008","A133072","-","-","-","-","-","211.0","Celsius","-","-","-","-","211.0","Celsius","-","-","","-",""
"COC[N+]=1C=CN(C1)C.FC(C(F)(F)F)(F)[B-](F)(F)F","-","-","AUTO_118","C0495_A0043","A133072","-","-","-","-","-","274.0","Celsius","-","-","-","-","274.0","Celsius","-","-","","-",""
"OCC[N+]=1C=CN(C1)C.F[B-](F)(F)F","-","-","AUTO_119","C0852_A0020","A133072","-","-","-","-","-","380.0","Celsius","-","-","-","-","380.0","Celsius","-","-","","-",""
"OCC[N+]=1C=CN(C1)C.FC(S(=O)(=O)[N-]S(=O)(=O)C(F)(F)F)(F)F","-","-","AUTO_120","C0852_A0048","A133072","-","-","-","-","-","420.0","Celsius","-","-","-","-","420.0","Celsius","-","-","","-",""
"OCC[N+]=1C=CN(C1)C.F[P-](F)(F)(F)(F)F","-","-","AUTO_121","C0852_A0011","A133072","-","-","-","-","-","310.0","Celsius","-","-","-","-","310.0","Celsius","-","-","","-",""
"COC(=O)C[N+]=1C=CN(C1)C.FC(S(=O)(=O)[N-]S(=O)(=O)C(F)(F)F)(F)F","-","-","AUTO_122","C0145_A0048","A133072","-","-","-","-","-","340.0","Celsius","-","-","-","-","340.0","Celsius","-","-","","-",""
"CCC([N+]=1C=CN(C1)C)C.FC(C(C(C(F)(F)F)(F)F)(F)F)(S(=O)(=O)[O-])F","-","-","AUTO_123","C1409_A0079","A133072","-","-","","-","-","280.0","Celsius","-","-","-","-","280.0","Celsius","-","-","","-",""
"C[N+]=1C=CN(C1)CCO[Si](C)(C)C.[I-]","-","-","AUTO_124","C0082_A0069","A133072","-","-","-","-","-","183.0","Celsius","-","-","-","-","183.0","Celsius","-","-","","-",""
"FCC[N+]=1C=CN(C1)CCO[Si](C)(C)C.[Br-]","-","-","AUTO_125","C0816_A0004","A133072","-","-","-","-","-","210.0","Celsius","-","-","-","-","210.0","Celsius","-","-","","-",""
"FC(CC[N+]=1C=CN(C1)CCO[Si](C)(C)C)(F)F.[I-]","-","-","AUTO_126","C1030_A0069","A133072","-","-","-","-","-","240.0","Celsius","-","-","-","-","240.0","Celsius","-","-","","-",""
"CC(CC[N+]=1C=CN(C1)C)C.FC(F)(F)C(F)(F)C(F)(F)C(F)(F)S(=O)(=O)[N-]S(=O)(=O)C(F)(F)C(F)(F)C(F)(F)C(F)(F)F","-","-","AUTO_127","C0584_A0028","A133072","-","-","-","-","-","280.0","Celsius","-","-","-","-","280.0","Celsius","-","-","","-",""
"CCC(=O)C[N+]=1C=CN(C1)CCC(F)(F)F.FC(S(=O)(=O)[N-]S(=O)(=O)C(F)(F)F)(F)F","-","-","AUTO_128","C0591_A0048","A133072","-","-","-","-","-","228.0","Celsius","-","-","-","-","228.0","Celsius","-","-","","-",""
"C[C@H](C[N+]=1C=CN(C1)C)O.[Cl-]","-","-","AUTO_129","C1354_A0033","A133072","-","-","-","-","-","300.0","Celsius","-","-","-","-","300.0","Celsius","-","-","","-",""
"C[C@H](C[N+]=1C=CN(C1)C)O.FC(S(=O)(=O)[N-]S(=O)(=O)C(F)(F)F)(F)F","-","-","AUTO_130","C1354_A0048","A133072","-","-","-","-","-","425.0","Celsius","-","-","-","-","425.0","Celsius","-","-","","-",""
"C[C@H](C[N+]=1C=CN(C1)C)O.[N+](=O)([O-])[O-]","-","-","AUTO_131","C1354_A0090","A133072","-","-","-","-","-","320.0","Celsius","-","-","-","-","320.0","Celsius","-","-","","-",""
"C[C@H](C[N+]=1C=CN(C1)C)O.F[P-](F)(F)(F)(F)F","-","-","AUTO_132","C1354_A0011","A133072","-","-","-","-","-","325.0","Celsius","-","-","-","-","325.0","Celsius","-","-","","-",""
"CCCCN1C=C[N+](=C1)C[C@H](O)C.[Cl-]","-","-","AUTO_133","C1523_A0033","A133072","-","-","-","-","-","250.0","Celsius","-","-","-","-","250.0","Celsius","-","-","","-",""
"BrCC(C[N+]=1C=CN(C1)C)Br.FC(S(=O)(=O)[N-]S(=O)(=O)C(F)(F)F)(F)F","-","-","AUTO_134","C1352_A0048","A133072","-","-","","-","-","268.0","Celsius","-","-","-","-","268.0","Celsius","-","-","","-",""
"BrCC(C[N+]=1C=CN(C1)C)Br.F[P-](F)(F)(F)(F)F","-","-","AUTO_135","C1352_A0011","A133072","-","-","","-","-","263.0","Celsius","-","-","-","-","263.0","Celsius","-","-","","-",""
"CN1C=C[N+](=C1)CCC(C(Br)(F)F)(Br)F.FC(S(=O)(=O)[N-]S(=O)(=O)C(F)(F)F)(F)F","-","-","AUTO_136","C1360_A0048","A133072","-","-","","-","-","284.0","Celsius","-","-","-","-","284.0","Celsius","-","-","","-",""
"BrCC(C[N+]=1C=CN(C1)C/C(=C/Br)/Br)Br.FC(S(=O)(=O)[N-]S(=O)(=O)C(F)(F)F)(F)F","-","-","AUTO_137","C1411_A0048","A133072","-","-","","-","-","258.0","Celsius","-","-","-","-","258.0","Celsius","-","-","","-",""
"BrCC(CN1C=C[N+](=C1)CC(CBr)Br)Br.FC(S(=O)(=O)[N-]S(=O)(=O)C(F)(F)F)(F)F","-","-","AUTO_138","C1362_A0048","A133072","-","-","","-","-","250.0","Celsius","-","-","-","-","250.0","Celsius","-","-","","-",""
"BrCC(CN1C=C[N+](=C1)C(CBr)Br)Br.FC(S(=O)(=O)[N-]S(=O)(=O)C(F)(F)F)(F)F","-","-","AUTO_139","C1330_A0048","A133072","-","-","","-","-","246.0","Celsius","-","-","-","-","246.0","Celsius","-","-","","-",""
"BrCC(CN1C=C[N+](=C1)CCC(C(Br)(F)F)(Br)F)Br.FC(S(=O)(=O)[N-]S(=O)(=O)C(F)(F)F)(F)F","-","-","AUTO_140","C1349_A0048","A133072","-","-","","-","-","273.0","Celsius","-","-","-","-","273.0","Celsius","-","-","","-",""
"C1=CC=C(C=C1)CN2C=C[N+](=C2)CC3=CC=CC=C3.C(#N)[N-]C#N","-","-","AUTO_141","C0841_A0056","A133072","-","-","-","-","-","252.0","Celsius","-","-","-","-","252.0","Celsius","-","-","","-",""
"C1=CC=C(C=C1)CN2C=C[N+](=C2)CC3=CC=CC=C3.O=C1[N-]S(=O)(=O)C2=CC=CC=C12","-","-","AUTO_142","C0841_A0007","A133072","-","-","-","-","-","243.0","Celsius","-","-","-","-","243.0","Celsius","-","-","","-",""
"C1=CC=C(C=C1)CN2C=C[N+](=C2)CC3=CC=CC=C3.FC(C(=O)[O-])(F)F","-","-","AUTO_143","C0841_A0064","A133072","-","-","-","-","-","180.0","Celsius","-","-","-","-","180.0","Celsius","-","-","","-",""
"C1=CC=C(C=C1)CN2C=C[N+](=C2)CC3=CC=CC=C3.[S-]C#N","-","-","AUTO_144","C0841_A0015","A133072","-","-","-","-","-","163.0","Celsius","-","-","-","-","163.0","Celsius","-","-","","-",""
"CCN1C=C[N+](=C1C)C.[Cl-]","-","-","AUTO_145","C0162_A0033","A133072","-","-","-","-","-","290.0","Celsius","-","-","-","-","290.0","Celsius","-","-","","-",""
"CCN1C=C[N+](=C1C)C.[Br-]","-","-","AUTO_146","C0162_A0004","A133072","-","-","-","-","-","322.0","Celsius","-","-","-","-","322.0","Celsius","-","-","","-",""
"CCN1C=C[N+](=C1C)C.FC(S(=O)(=O)[N-]S(=O)(=O)C(F)(F)F)(F)F","-","-","AUTO_147","C0162_A0048","A133072","-","-","-","-","-","456.0","Celsius","-","-","-","-","456.0","Celsius","-","-","","-",""
"CCN1C=C[N+](=C1C)C.FC(F)(F)C(F)(F)S(=O)(=O)[N-]S(=O)(=O)C(F)(F)C(F)(F)F","-","-","AUTO_148","C0162_A0067","A133072","-","-","-","-","-","420.0","Celsius","-","-","-","-","420.0","Celsius","-","-","","-",""
"CCN1C=C[N+](=C1C)C.C(C1=CC=CC=C1)(=O)[O-]","-","-","AUTO_149","C0162_A0031","A133072","-","-","-","-","-","269.0","Celsius","-","-","-","-","269.0","Celsius","-","-","","-",""
"CCCN1C=C[N+](=C1C)C.FC(S(=O)(=O)[N-]S(=O)(=O)C(F)(F)F)(F)F","-","-","AUTO_150","C0052_A0048","A133072","-","-","-","-","-","457.0","Celsius","-","-","-","-","457.0","Celsius","-","-","","-",""
"CCCN1C=C[N+](=C1C)C.F[P-](F)(F)(F)(F)F","-","-","AUTO_151","C0052_A0011","A133072","-","-","-","-","-","399.0","Celsius","-","-","-","-","399.0","Celsius","-","-","","-",""
"CCCC[N+]=1C=CN(C1C)C.C(C1=CC=CC=C1)(=O)[O-]","-","-","AUTO_152","C1098_A0031","A133072","-","-","-","-","-","256.0","Celsius","-","-","-","-","256.0","Celsius","-","-","","-",""
"[O-][N+](=O)C1=CN(C=[N+]1C)C.Cl(=O)(=O)(=O)[O-]","-","-","AUTO_153","C0140_A0051","A133072","-","-","-","-","-","259.0","Celsius","-","-","-","-","259.0","Celsius","-","-","","-",""
"[O-][N+](=O)C1=CN(C=[N+]1C)C.[N+](=O)([O-])[O-]","-","-","AUTO_154","C0140_A0090","A133072","-","-","-","-","-","174.0","Celsius","-","-","-","-","174.0","Celsius","-","-","","-",""
"[O-][N+](=O)C1=CN(C(=[N+]1C)C)C.Cl(=O)(=O)(=O)[O-]","-","-","AUTO_155","C0517_A0051","A133072","-","-","-","-","-","307.0","Celsius","-","-","-","-","307.0","Celsius","-","-","","-",""
"[O-][N+](=O)C1=CN(C(=[N+]1C)C)C.[N+](=O)([O-])[O-]","-","-","AUTO_156","C0517_A0090","A133072","-","-","-","-","-","166.0","Celsius","-","-","-","-","166.0","Celsius","-","-","","-",""
"CC[N+]=1C(=CN(C1C)C)[N+](=O)[O-].Cl(=O)(=O)(=O)[O-]","-","-","AUTO_157","C0904_A0051","A133072","-","-","-","-","-","237.0","Celsius","-","-","-","-","237.0","Celsius","-","-","","-",""
"CC[N+]=1C(=CN(C1C)C)[N+](=O)[O-].[N+](=O)([O-])[O-]","-","-","AUTO_158","C0904_A0090","A133072","-","-","-","-","-","146.0","Celsius","-","-","-","-","146.0","Celsius","-","-","","-",""