"SMILES","CASRN","EXTERNALID","N","NAME","ARTICLEID","PUBMEDID","PAGE","TABLE","Melting Point","UNIT {Melting Point}","Decomposition","UNIT {Decomposition}","Glass-transition temperature (Tg)","UNIT {Glass-transition temperature (Tg)}","Melting Point {measured, converted}","UNIT {Melting Point}","Decomposition {measured, converted}","UNIT {Decomposition}","Glass-transition temperature (Tg) {measured, converted}","UNIT {Glass-transition temperature (Tg)}","weight loss","UNIT {weight loss}","Solvent"
"CCN1C=C[NH+]=C1C.[Cl-]","-","-","AUTO_61","C0553_A0033","A132065","-","-","-","178.0","Celsius","-","-","-","-","178.0","Celsius","-","-","-","-","","-",""
"CCN1C=C[NH+]=C1C.[Br-]","-","-","AUTO_62","C0553_A0004","A132065","-","-","-","144.0","Celsius","-","-","-","-","144.0","Celsius","-","-","-","-","","-",""
"CCN1C=C[NH+]=C1C.[O-]Cl(=O)(=O)=O","-","-","AUTO_63","C0553_A0051","A132065","-","-","-","7.0","Celsius","-","-","-","-","7.0","Celsius","-","-","-","-","","-",""
"CCN1C=C[NH+]=C1C.FC(F)(F)C(F)(F)S(=O)(=O)[N-]S(=O)(=O)C(F)(F)C(F)(F)F","-","-","AUTO_64","C0553_A0067","A132065","-","-","-","-19.0","Celsius","-","-","-","-","-19.0","Celsius","-","-","-","-","","-",""
"CCN1C=C[NH+]=C1C.[N+](=O)([O-])[O-]","-","-","AUTO_65","C0553_A0090","A132065","-","-","-","75.0","Celsius","-","-","-","-","75.0","Celsius","-","-","-","-","","-",""
"CCN1C=C[NH+]=C1C.FC(S(=O)(=O)[O-])(F)F","-","-","AUTO_66","C0553_A0084","A132065","-","-","-","33.0","Celsius","-","-","-","-","33.0","Celsius","-","-","-","-","","-",""
"CN1C=C[N+](=C1)CC(F)(F)F.FC(S(=O)(=O)[O-])(F)F","-","-","AUTO_68","C1125_A0084","A132065","-","-","-","45.0","Celsius","-","-","-","-","45.0","Celsius","-","-","-","-","","-",""
"CCN1C=C[N+](=C1)CC.FC(S(=O)(=O)[O-])(F)F","-","-","AUTO_69","C0064_A0084","A132065","-","-","-","23.0","Celsius","-","-","-","-","23.0","Celsius","-","-","-","-","","-",""
"CCC[N+]=1C=CN(C1)C.[Cl-]","-","-","AUTO_70","C0811_A0033","A132065","-","-","-","60.0","Celsius","-","-","-","-","60.0","Celsius","-","-","-","-","","-",""
"CCC[N+]=1C=CN(C1)C.F[B-](F)(F)F","-","-","AUTO_71","C0811_A0020","A132065","-","-","-","-17.0","Celsius","-","-","-","-","-17.0","Celsius","-","-","-","-","","-",""
"CCC[N+]=1C=CN(C1)C.FC(F)(F)[B-](F)(F)F","-","-","AUTO_72","C0811_A0008","A132065","-","-","-","-21.0","Celsius","-","-","-","-","-21.0","Celsius","-","-","-","-","","-",""
"CCC[N+]=1C=CN(C1)C.FC(C(F)(F)F)(F)[B-](F)(F)F","-","-","AUTO_73","C0811_A0043","A132065","-","-","-","-42.0","Celsius","-","-","-","-","-42.0","Celsius","-","-","-","-","","-",""
"CCC[N+]=1C=CN(C1)C.FC(C(F)(F)[B-](F)(F)F)(C(F)(F)F)F","-","-","AUTO_74","C0811_A0009","A132065","-","-","-","-5.0","Celsius","-","-","-","-","-5.0","Celsius","-","-","-","-","","-",""
"CCC[N+]=1C=CN(C1)C.FC(C(C(F)(F)[B-](F)(F)F)(F)F)(C(F)(F)F)F","-","-","AUTO_75","C0811_A0021","A132065","-","-","-","-12.0","Celsius","-","-","-","-","-12.0","Celsius","-","-","-","-","","-",""
"CCC[N+]=1C=CN(C1)C.FC(C(C(C(F)(F)F)(F)F)(F)F)(S(=O)(=O)[O-])F","-","-","AUTO_77","C0811_A0079","A132065","-","-","-","34.0","Celsius","-","-","-","-","34.0","Celsius","-","-","-","-","","-",""
"CCC[N+]=1C=CN(C1)C.F[P-](F)(F)(F)(F)F","-","-","AUTO_78","C0811_A0011","A132065","-","-","-","40.0","Celsius","-","-","-","-","40.0","Celsius","-","-","-","-","","-",""
"CN1C=C[N+](=C1)C(C)C.[I-]","-","-","AUTO_79","C0854_A0069","A132065","-","-","-","114.0","Celsius","-","-","-","-","114.0","Celsius","-","-","-","-","","-",""
"CN1C=C[N+](=C1)C(C)C.C(F)(F)(F)S(=O)(=O)[N-]S(=O)(=O)C(F)(F)F","-","-","AUTO_80","C0854_A0048","A132065","-","-","-","16.0","Celsius","-","-","-","-","16.0","Celsius","-","-","-","-","","-",""
"CN1C=C[N+](=C1)C(C)C.FC(F)(F)C(F)(F)C(F)(F)C(F)(F)S(=O)(=O)[N-]S(=O)(=O)C(F)(F)C(F)(F)C(F)(F)C(F)(F)F","-","-","AUTO_81","C0854_A0028","A132065","-","-","-","29.0","Celsius","-","-","-","-","29.0","Celsius","-","-","-","-","","-",""
"CN1C=C[N+](=C1)C(C)C.F[P-](F)(F)(F)(F)F","-","-","AUTO_82","C0854_A0011","A132065","-","-","-","102.0","Celsius","-","-","-","-","102.0","Celsius","-","-","-","-","","-",""
"COCC[N+]=1C=CN(C1)C.[Cl-]","-","-","AUTO_83","C0291_A0033","A132065","-","-","-","67.0","Celsius","-","-","-","-","67.0","Celsius","-","-","-","-","","-",""
"COCC[N+]=1C=CN(C1)C.FC(F)(F)[B-](F)(F)F","-","-","AUTO_84","C0291_A0008","A132065","-","-","-","2.0","Celsius","-","-","-","-","2.0","Celsius","-","-","-","-","","-",""
"COCC[N+]=1C=CN(C1)C.FC(C(F)(F)F)(F)[B-](F)(F)F","-","-","AUTO_85","C0291_A0043","A132065","-","-","-","-9.0","Celsius","-","-","-","-","-9.0","Celsius","-","-","-","-","","-",""
"COCC[N+]=1C=CN(C1)C.FC(S(=O)(=O)[O-])(F)F","-","-","AUTO_86","C0291_A0084","A132065","-","-","-","27.0","Celsius","-","-","-","-","27.0","Celsius","-","-","-","-","","-",""
"COCC[N+]=1C=CN(C1)C.F[P-](F)(F)(F)(F)F","-","-","AUTO_87","C0291_A0011","A132065","-","-","-","26.0","Celsius","-","-","-","-","26.0","Celsius","-","-","-","-","","-",""
"CCCC[N+]=1C=CN(C1)C.FC(C=1C=C(C=C(C1)C(F)(F)F)[B-](C2=CC(=CC(=C2)C(F)(F)F)C(F)(F)F)(C3=CC(=CC(=C3)C(F)(F)F)C(F)(F)F)C4=CC(=CC(=C4)C(F)(F)F)C(F)(F)F)(F)F","-","-","AUTO_89","C0505_A0006","A132065","-","-","-","104.0","Celsius","-","-","-","-","104.0","Celsius","-","-","-","-","","-",""
"CCCC[N+]=1C=CN(C1)C.C[Si](C)(CCC(F)(F)F)C1=CC=C(C=C1)[B-](C2=CC=C(C=C2)[Si](C)(C)CCC(F)(F)F)(C3=CC=C(C=C3)[Si](C)(C)CCC(F)(F)F)C4=CC=C(C=C4)[Si](C)(C)CCC(F)(F)F","-","-","AUTO_90","C0505_A0013","A132065","-","-","-","104.0","Celsius","-","-","-","-","104.0","Celsius","-","-","-","-","","-",""
"CCCC[N+]=1C=CN(C1)C.FC(F)(F)C(F)(F)C(F)(F)C(F)(F)C(F)(F)C(F)(F)C1=CC=C(C=C1)[B-](C2=CC=C(C=C2)C(F)(F)C(F)(F)C(F)(F)C(F)(F)C(F)(F)C(F)(F)F)(C3=CC=C(C=C3)C(F)(F)C(F)(F)C(F)(F)C(F)(F)C(F)(F)C(F)(F)F)C4=CC=C(C=C4)C(F)(F)C(F)(F)C(F)(F)C(F)(F)C(F)(F)C(F)(F)F","-","-","AUTO_91","C0505_A0075","A132065","-","-","-","90.0","Celsius","-","-","-","-","90.0","Celsius","-","-","-","-","","-",""
"CCCC[N+]=1C=CN(C1)C.FC(C(F)(F)F)(F)[B-](F)(F)F","-","-","AUTO_92","C0505_A0043","A132065","-","-","-","-42.0","Celsius","-","-","-","-","-42.0","Celsius","-","-","-","-","","-",""
"CCCC[N+]=1C=CN(C1)C.CC(CC#N)[B-](F)(F)F","-","-","AUTO_93","C0505_A0029","A132065","-","-","-","-85.0","Celsius","-","-","-","-","-85.0","Celsius","-","-","-","-","","-",""
"CCCC[N+]=1C=CN(C1)C.C(F)(F)(F)S(=O)(=O)[N-]S(=O)(=O)C(F)(F)F","-","-","AUTO_94","C0505_A0048","A132065","-","-","-","-9.0","Celsius","-","-","-","-","-9.0","Celsius","-","-","-","-","","-",""
"CCCC[N+]=1C=CN(C1)C.C(#N)[N-]C#N","-","-","AUTO_95","C0505_A0056","A132065","-","-","-","-6.0","Celsius","-","-","-","-","-6.0","Celsius","-","-","-","-","","-",""
"CCCC[N+]=1C=CN(C1)C.FC(S(=O)(=O)[O-])(F)F","-","-","AUTO_96","C0505_A0084","A132065","-","-","-","16.0","Celsius","-","-","-","-","16.0","Celsius","-","-","-","-","","-",""
"CCCC[N+]=1C=CN(C1)C.FC(C(C(C(F)(F)F)(F)F)(F)F)(S(=O)(=O)[O-])F","-","-","AUTO_97","C0505_A0079","A132065","-","-","-","20.0","Celsius","-","-","-","-","20.0","Celsius","-","-","-","-","","-",""
"CCCC[N+]=1C=CN(C1)C.C(CCCC)OS(=O)(=O)[O-]","-","-","AUTO_98","C0505_A0077","A132065","-","-","-","-17.0","Celsius","-","-","-","-","-17.0","Celsius","-","-","-","-","","-",""
"CCCC[N+]=1C=CN(C1)C.FC(CCCOS(=O)(=O)[O-])(C(F)(F)F)F","-","-","AUTO_99","C0505_A0086","A132065","-","-","-","-15.0","Celsius","-","-","-","-","-15.0","Celsius","-","-","-","-","","-",""
"CCCC[N+]=1C=CN(C1)C.FC(COS(=O)(=O)[O-])(C(C(C(F)F)(F)F)(F)F)F","-","-","AUTO_100","C0505_A0078","A132065","-","-","-","-61.0","Celsius","-","-","-","-","-61.0","Celsius","-","-","-","-","","-",""
"CCCC[N+]=1C=CN(C1)C.C(C)(=O)[O-]","-","-","AUTO_102","C0505_A0087","A132065","-","-","-","-20.0","Celsius","-","-","-","-","-20.0","Celsius","-","-","-","-","","-",""
"CCCC[N+]=1C=CN(C1)C.[Al-](Cl)(Cl)(Cl)Cl","-","-","AUTO_103","C0505_A0085","A132065","-","-","-","-10.0","Celsius","-","-","-","-","-10.0","Celsius","-","-","-","-","","-",""
"CCCCC[N+]=1C=CN(C1)C.FC(C=1C=C(C=C(C1)C(F)(F)F)[B-](C2=CC(=CC(=C2)C(F)(F)F)C(F)(F)F)(C3=CC(=CC(=C3)C(F)(F)F)C(F)(F)F)C4=CC(=CC(=C4)C(F)(F)F)C(F)(F)F)(F)F","-","-","AUTO_104","C0782_A0006","A132065","-","-","-","82.0","Celsius","-","-","-","-","82.0","Celsius","-","-","-","-","","-",""
"CCCCC[N+]=1C=CN(C1)C.C(F)(F)(F)S(=O)(=O)[N-]S(=O)(=O)C(F)(F)F","-","-","AUTO_105","C0782_A0048","A132065","-","-","-","-9.0","Celsius","-","-","-","-","-9.0","Celsius","-","-","-","-","","-",""
"CCCCC[N+]=1C=CN(C1)C.O=C1[N-]S(=O)(=O)C2=CC=CC=C12","-","-","AUTO_106","C0782_A0007","A132065","-","-","-","64.0","Celsius","-","-","-","-","64.0","Celsius","-","-","-","-","","-",""
"CCCC[N+]=1C=CN(C1)CC.C(F)(F)(F)S(=O)(=O)[N-]S(=O)(=O)C(F)(F)F","-","-","AUTO_107","C0835_A0048","A132065","-","-","-","-8.0","Celsius","-","-","-","-","-8.0","Celsius","-","-","-","-","","-",""
"CCCC[N+]=1C=CN(C1)CC.FC(S(=O)(=O)[O-])(F)F","-","-","AUTO_108","C0835_A0084","A132065","-","-","-","2.0","Celsius","-","-","-","-","2.0","Celsius","-","-","-","-","","-",""
"CCCC[N+]=1C=CN(C1)CC.FC(C(C(C(F)(F)F)(F)F)(F)F)(S(=O)(=O)[O-])F","-","-","AUTO_109","C0835_A0079","A132065","-","-","-","21.0","Celsius","-","-","-","-","21.0","Celsius","-","-","-","-","","-",""
"CCCC[N+]=1C=CN(C1)CC.FC(C(=O)[O-])(F)F","-","-","AUTO_110","C0835_A0064","A132065","-","-","-","-40.0","Celsius","-","-","-","-","-40.0","Celsius","-","-","-","-","","-",""
"CCCCCC[N+]=1C=CN(C1)C.[Cl-]","-","-","AUTO_111","C0190_A0033","A132065","-","-","-","-75.0","Celsius","-","-","-","-","-75.0","Celsius","-","-","-","-","","-",""
"CCCCCC[N+]=1C=CN(C1)C.FC(C=1C=C(C=C(C1)C(F)(F)F)[B-](C2=CC(=CC(=C2)C(F)(F)F)C(F)(F)F)(C3=CC(=CC(=C3)C(F)(F)F)C(F)(F)F)C4=CC(=CC(=C4)C(F)(F)F)C(F)(F)F)(F)F","-","-","AUTO_112","C0190_A0006","A132065","-","-","-","82.0","Celsius","-","-","-","-","82.0","Celsius","-","-","-","-","","-",""
"CCCCCC[N+]=1C=CN(C1)C.FC(C(F)(F)F)(F)[B-](F)(F)F","-","-","AUTO_113","C0190_A0043","A132065","-","-","-","-10.0","Celsius","-","-","-","-","-10.0","Celsius","-","-","-","-","","-",""
"CCCCCC[N+]=1C=CN(C1)C.C(F)(F)(F)S(=O)(=O)[N-]S(=O)(=O)C(F)(F)F","-","-","AUTO_114","C0190_A0048","A132065","-","-","-","-7.0","Celsius","-","-","-","-","-7.0","Celsius","-","-","-","-","","-",""
"CCCCCC[N+]=1C=CN(C1)C.FC(S(=O)(=O)[O-])(F)F","-","-","AUTO_115","C0190_A0084","A132065","-","-","-","29.0","Celsius","-","-","-","-","29.0","Celsius","-","-","-","-","","-",""
"CCCCCC[N+]=1C=CN(C1)C.C(C(F)(F)[P-](C(C(F)(F)F)(F)F)(C(C(F)(F)F)(F)F)(F)(F)F)(F)(F)F","-","-","AUTO_116","C0190_A0071","A132065","-","-","-","-50.0","Celsius","-","-","-","-","-50.0","Celsius","-","-","-","-","","-",""
"CN1C=C[N+](=C1)CC(=O)C2=CC=CC=C2.[Br-]","-","-","AUTO_117","C0698_A0004","A132065","-","-","-","49.0","Celsius","-","-","-","-","49.0","Celsius","-","-","-","-","","-",""
"CCCCCCC[N+]=1C=CN(C1)C.FC(C=1C=C(C=C(C1)C(F)(F)F)[B-](C2=CC(=CC(=C2)C(F)(F)F)C(F)(F)F)(C3=CC(=CC(=C3)C(F)(F)F)C(F)(F)F)C4=CC(=CC(=C4)C(F)(F)F)C(F)(F)F)(F)F","-","-","AUTO_118","C0293_A0006","A132065","-","-","-","69.0","Celsius","-","-","-","-","69.0","Celsius","-","-","-","-","","-",""
"CCCCCCC[N+]=1C=CN(C1)C.C(F)(F)(F)S(=O)(=O)[N-]S(=O)(=O)C(F)(F)F","-","-","AUTO_119","C0293_A0048","A132065","-","-","-","7.0","Celsius","-","-","-","-","7.0","Celsius","-","-","-","-","","-",""
"CCCCN1C=C[N+](=C1)CCCC.[Cl-]","-","-","AUTO_120","C1006_A0033","A132065","-","-","-","55.0","Celsius","-","-","-","-","55.0","Celsius","-","-","-","-","","-",""
"CN1C=C[N+](=C1)CC2=CC=CC=C2.[Br-]","-","-","AUTO_121","C0810_A0004","A132065","-","-","-","126.0","Celsius","-","-","-","-","126.0","Celsius","-","-","-","-","","-",""
"CN1C=C[N+](=C1)CC2=CC=CC=C2.FC(S(=O)(=O)[O-])(F)F","-","-","AUTO_122","C0810_A0084","A132065","-","-","-","27.0","Celsius","-","-","-","-","27.0","Celsius","-","-","-","-","","-",""
"CN1C=C[N+](=C1)CC2=CC=CC=C2.F[P-](F)(F)(F)(F)F","-","-","AUTO_123","C0810_A0011","A132065","-","-","-","130.0","Celsius","-","-","-","-","130.0","Celsius","-","-","-","-","","-",""
"COC1=CC=C(C=C1)[N+]=2C=CN(C2)C.FC(S(=O)(=O)[O-])(F)F","-","-","AUTO_124","C0497_A0084","A132065","-","-","-","45.0","Celsius","-","-","-","-","45.0","Celsius","-","-","-","-","","-",""
"CCCCCCCC[N+]=1C=CN(C1)C.FC(C=1C=C(C=C(C1)C(F)(F)F)[B-](C2=CC(=CC(=C2)C(F)(F)F)C(F)(F)F)(C3=CC(=CC(=C3)C(F)(F)F)C(F)(F)F)C4=CC(=CC(=C4)C(F)(F)F)C(F)(F)F)(F)F","-","-","AUTO_125","C0290_A0006","A132065","-","-","-","75.0","Celsius","-","-","-","-","75.0","Celsius","-","-","-","-","","-",""
"CCCCCCCC[N+]=1C=CN(C1)C.F[P-](F)(F)(F)(F)F","-","-","AUTO_126","C0290_A0011","A132065","-","-","-","-40.0","Celsius","-","-","-","-","-40.0","Celsius","-","-","-","-","","-",""
"CN1C=C[N+](=C1)CCC2=CC=CC=C2.C(F)(F)(F)S(=O)(=O)[N-]S(=O)(=O)C(F)(F)F","-","-","AUTO_127","C0577_A0048","A132065","-","-","-","37.0","Celsius","-","-","-","-","37.0","Celsius","-","-","-","-","","-",""
"CN1C=C[N+](=C1)CCC2=CC=CC=C2.F[P-](F)(F)(F)(F)F","-","-","AUTO_128","C0577_A0011","A132065","-","-","-","103.0","Celsius","-","-","-","-","103.0","Celsius","-","-","-","-","","-",""
"CCCCCCCOC[N+]=1C=CN(C1)C.F[P-](F)(F)(F)(F)F","-","-","AUTO_129","C0895_A0011","A132065","-","-","-","38.0","Celsius","-","-","-","-","38.0","Celsius","-","-","-","-","","-",""
"CCCOCN1C=C[N+](=C1)COCCCC.F[P-](F)(F)(F)(F)F","-","-","AUTO_130","C0496_A0011","A132065","-","-","-","48.0","Celsius","-","-","-","-","48.0","Celsius","-","-","-","-","","-",""
"CCCCCCCCC[N+]=1C=CN(C1)C.F[P-](F)(F)(F)(F)F","-","-","AUTO_131","C0509_A0011","A132065","-","-","-","14.0","Celsius","-","-","-","-","14.0","Celsius","-","-","-","-","","-",""
"CCCCCCCC[N+]=1C=CN(C1)CC.S(=O)(=O)([O-])C1=CC=C(C)C=C1","-","-","AUTO_132","C0242_A0030","A132065","-","-","-","70.0","Celsius","-","-","-","-","70.0","Celsius","-","-","-","-","","-",""
"CN1C=C[N+](=C1)CCCC2=CC=CC=C2.C(F)(F)(F)S(=O)(=O)[N-]S(=O)(=O)C(F)(F)F","-","-","AUTO_133","C1108_A0048","A132065","-","-","-","48.0","Celsius","-","-","-","-","48.0","Celsius","-","-","-","-","","-",""
"CN1C=C[N+](=C1)CCCC2=CC=CC=C2.F[P-](F)(F)(F)(F)F","-","-","AUTO_134","C1108_A0011","A132065","-","-","-","52.0","Celsius","-","-","-","-","52.0","Celsius","-","-","-","-","","-",""
"CCCCOCN1C=C[N+](=C1)COCCCC.F[P-](F)(F)(F)(F)F","-","-","AUTO_135","C0038_A0011","A132065","-","-","-","57.0","Celsius","-","-","-","-","57.0","Celsius","-","-","-","-","","-",""
"CCCCCCCC[N+]=1C=CN(C1)CCC.F[P-](F)(F)(F)(F)F","-","-","AUTO_136","C0280_A0011","A132065","-","-","-","-30.0","Celsius","-","-","-","-","-30.0","Celsius","-","-","-","-","","-",""
"CCCCCCCCCC[N+]=1C=CN(C1)C.[Cl-]","-","-","AUTO_137","C0515_A0033","A132065","-","-","-","38.0","Celsius","-","-","-","-","38.0","Celsius","-","-","-","-","","-",""
"CCCCCCCCCC[N+]=1C=CN(C1)C.FC(C=1C=C(C=C(C1)C(F)(F)F)[B-](C2=CC(=CC(=C2)C(F)(F)F)C(F)(F)F)(C3=CC(=CC(=C3)C(F)(F)F)C(F)(F)F)C4=CC(=CC(=C4)C(F)(F)F)C(F)(F)F)(F)F","-","-","AUTO_138","C0515_A0006","A132065","-","-","-","85.0","Celsius","-","-","-","-","85.0","Celsius","-","-","-","-","","-",""
"CCCCCCCCCC[N+]=1C=CN(C1)C.C(F)(F)(F)S(=O)(=O)[N-]S(=O)(=O)C(F)(F)F","-","-","AUTO_139","C0515_A0048","A132065","-","-","-","-2.0","Celsius","-","-","-","-","-2.0","Celsius","-","-","-","-","","-",""
"CCCCCCCCCC[N+]=1C=CN(C1)C.S(=O)(=O)([O-])C1=CC=C(C)C=C1","-","-","AUTO_140","C0515_A0030","A132065","-","-","-","79.0","Celsius","-","-","-","-","79.0","Celsius","-","-","-","-","","-",""
"CCCCCCCCCC[N+]=1C=CN(C1)C.F[P-](F)(F)(F)(F)F","-","-","AUTO_141","C0515_A0011","A132065","-","-","-","32.0","Celsius","-","-","-","-","32.0","Celsius","-","-","-","-","","-",""
"CCCCCCCCCCC[N+]=1C=CN(C1)C.F[B-](F)(F)F","-","-","AUTO_142","C0241_A0020","A132065","-","-","-","21.0","Celsius","-","-","-","-","21.0","Celsius","-","-","-","-","","-",""
"CCCCCCCCCCCC[N+]=1C=CN(C1)C.[Cl-]","-","-","AUTO_143","C0723_A0033","A132065","-","-","-","97.0","Celsius","-","-","-","-","97.0","Celsius","-","-","-","-","","-",""
"CCCCCCCCCCCC[N+]=1C=CN(C1)C.[Br-]","-","-","AUTO_144","C0723_A0004","A132065","-","-","-","-5.0","Celsius","-","-","-","-","-5.0","Celsius","-","-","-","-","","-",""
"CCCCCCCCCCCC[N+]=1C=CN(C1)C.F[B-](F)(F)F","-","-","AUTO_145","C0723_A0020","A132065","-","-","-","34.0","Celsius","-","-","-","-","34.0","Celsius","-","-","-","-","","-",""
"CCCCCCCCCCCC[N+]=1C=CN(C1)C.C(F)(F)(F)S(=O)(=O)[N-]S(=O)(=O)C(F)(F)F","-","-","AUTO_146","C0723_A0048","A132065","-","-","-","17.0","Celsius","-","-","-","-","17.0","Celsius","-","-","-","-","","-",""
"CCCCCCCCCCCC[N+]=1C=CN(C1)C.FC(S(=O)(=O)[O-])(F)F","-","-","AUTO_147","C0723_A0084","A132065","-","-","-","40.0","Celsius","-","-","-","-","40.0","Celsius","-","-","-","-","","-",""
"CCCCCCCCCCCC[N+]=1C=CN(C1)C.F[P-](F)(F)(F)(F)F","-","-","AUTO_148","C0723_A0011","A132065","-","-","-","60.0","Celsius","-","-","-","-","60.0","Celsius","-","-","-","-","","-",""
"CCCCCCCCCCCC[N+]=1C=CN(C1)C.FC(C=1C=C(C=C(C1)C(F)(F)F)[B-](C2=CC(=CC(=C2)C(F)(F)F)C(F)(F)F)(C3=CC(=CC(=C3)C(F)(F)F)C(F)(F)F)C4=CC(=CC(=C4)C(F)(F)F)C(F)(F)F)(F)F","-","-","AUTO_149","C0723_A0006","A132065","-","-","-","72.0","Celsius","-","-","-","-","72.0","Celsius","-","-","-","-","","-",""
"CCCCCCCCCCCCCN1C=C[N+](=C1)C.F[B-](F)(F)F","-","-","AUTO_150","C0658_A0020","A132065","-","-","-","49.0","Celsius","-","-","-","-","49.0","Celsius","-","-","-","-","","-",""
"CCCCCCCCCCCCCC[N+]=1C=CN(C1)C.[Cl-]","-","-","AUTO_151","C0665_A0033","A132065","-","-","-","19.0","Celsius","-","-","-","-","19.0","Celsius","-","-","-","-","","-",""
"CCCCCCCCCCCCCC[N+]=1C=CN(C1)C.[Br-]","-","-","AUTO_152","C0665_A0004","A132065","-","-","-","54.0","Celsius","-","-","-","-","54.0","Celsius","-","-","-","-","","-",""
"CCCCCCCCCCCCCC[N+]=1C=CN(C1)C.F[B-](F)(F)F","-","-","AUTO_153","C0665_A0020","A132065","-","-","-","38.0","Celsius","-","-","-","-","38.0","Celsius","-","-","-","-","","-",""
"CCCCCCCCCCCCCC[N+]=1C=CN(C1)C.C(F)(F)(F)S(=O)(=O)[N-]S(=O)(=O)C(F)(F)F","-","-","AUTO_154","C0665_A0048","A132065","-","-","-","34.0","Celsius","-","-","-","-","34.0","Celsius","-","-","-","-","","-",""
"CCCCCCCCCCCCCC[N+]=1C=CN(C1)C.FC(S(=O)(=O)[O-])(F)F","-","-","AUTO_155","C0665_A0084","A132065","-","-","-","50.0","Celsius","-","-","-","-","50.0","Celsius","-","-","-","-","","-",""
"CCCCCCCCCCCCCC[N+]=1C=CN(C1)C.F[P-](F)(F)(F)(F)F","-","-","AUTO_156","C0665_A0011","A132065","-","-","-","73.0","Celsius","-","-","-","-","73.0","Celsius","-","-","-","-","","-",""
"CCCCCCCCCCCCCCC[N+]=1C=CN(C1)C.F[B-](F)(F)F","-","-","AUTO_157","C0059_A0020","A132065","-","-","-","55.0","Celsius","-","-","-","-","55.0","Celsius","-","-","-","-","","-",""
"CCCCCCCCCCCCCCCC[N+]=1C=CN(C1)C.[Cl-]","-","-","AUTO_158","C0976_A0033","A132065","-","-","-","42.0","Celsius","-","-","-","-","42.0","Celsius","-","-","-","-","","-",""
"CCCCCCCCCCCCCCCC[N+]=1C=CN(C1)C.[Br-]","-","-","AUTO_159","C0976_A0004","A132065","-","-","-","40.0","Celsius","-","-","-","-","40.0","Celsius","-","-","-","-","","-",""
"CCCCCCCCCCCCCCCC[N+]=1C=CN(C1)C.F[B-](F)(F)F","-","-","AUTO_160","C0976_A0020","A132065","-","-","-","46.0","Celsius","-","-","-","-","46.0","Celsius","-","-","-","-","","-",""
"CCCCCCCCCCCCCCCC[N+]=1C=CN(C1)C.C(F)(F)(F)S(=O)(=O)[N-]S(=O)(=O)C(F)(F)F","-","-","AUTO_161","C0976_A0048","A132065","-","-","-","42.0","Celsius","-","-","-","-","42.0","Celsius","-","-","-","-","","-",""
"CCCCCCCCCCCCCCCC[N+]=1C=CN(C1)C.FC(S(=O)(=O)[O-])(F)F","-","-","AUTO_162","C0976_A0084","A132065","-","-","-","58.0","Celsius","-","-","-","-","58.0","Celsius","-","-","-","-","","-",""
"CCCCCCCCCCCCCCCC[N+]=1C=CN(C1)C.F[P-](F)(F)(F)(F)F","-","-","AUTO_163","C0976_A0011","A132065","-","-","-","75.0","Celsius","-","-","-","-","75.0","Celsius","-","-","-","-","","-",""
"CCCCCCCCCCCCCCCCCC[N+]=1C=CN(C1)C.[Cl-]","-","-","AUTO_164","C0081_A0033","A132065","-","-","-","53.0","Celsius","-","-","-","-","53.0","Celsius","-","-","-","-","","-",""
"CCCCCCCCCCCCCCCCCC[N+]=1C=CN(C1)C.F[B-](F)(F)F","-","-","AUTO_165","C0081_A0020","A132065","-","-","-","67.0","Celsius","-","-","-","-","67.0","Celsius","-","-","-","-","","-",""