"SMILES","CASRN","EXTERNALID","N","NAME","ARTICLEID","PUBMEDID","PAGE","TABLE","Melting Point","UNIT {Melting Point}","Decomposition","UNIT {Decomposition}","Glass-transition temperature (Tg)","UNIT {Glass-transition temperature (Tg)}","Melting Point {measured, converted}","UNIT {Melting Point}","Decomposition {measured, converted}","UNIT {Decomposition}","Glass-transition temperature (Tg) {measured, converted}","UNIT {Glass-transition temperature (Tg)}","weight loss","UNIT {weight loss}","Solvent"
"CCCCCCCCCCCCC1=CC=[NH+]C=C1.[Cl-]","-","-","AUTO_2096","C2079_A0033","A132065","-","-","-","124.0","Celsius","-","-","-","-","124.0","Celsius","-","-","-","-","","-",""
"CCCCCCCCCCCCCCCCC(C1=CC=[N+](C=C1)C)CCCCCCCCCCCCCCCC.[I-]","-","-","AUTO_2097","C2080_A0069","A132065","-","-","-","72.0","Celsius","-","-","-","-","72.0","Celsius","-","-","-","-","","-",""
"CCCCCCCCCCCCCCCCC(C1=CC=[N+](C=C1)C)CCCCCCCCCCCCCCCC.[Cl-]","-","-","AUTO_2098","C2080_A0033","A132065","-","-","-","64.0","Celsius","-","-","-","-","64.0","Celsius","-","-","-","-","","-",""
"CCCCCCCCCCCCC1=CC=[N+](C=C1)C.[Cl-]","-","-","AUTO_2099","C2081_A0033","A132065","-","-","-","51.0","Celsius","-","-","-","-","51.0","Celsius","-","-","-","-","","-",""
"CCCCCCCCCC1=CC=[NH+]C=C1.[Cl-]","-","-","AUTO_2100","C2082_A0033","A132065","-","-","-","119.0","Celsius","-","-","-","-","119.0","Celsius","-","-","-","-","","-",""
"CCCCCCCCCCCCC1=CC=[N+](C=C1)C.[I-]","-","-","AUTO_2101","C2081_A0069","A132065","-","-","-","113.0","Celsius","-","-","-","-","113.0","Celsius","-","-","-","-","","-",""
"CCCCCCCCCCCCC1=CC=[N+](C=C1)C.[O-]Cl(=O)(=O)=O","-","-","AUTO_2102","C2081_A0051","A132065","-","-","-","93.0","Celsius","-","-","-","-","93.0","Celsius","-","-","-","-","","-",""
"C[N+]=1C=CN(C1)CC2=CC=C3C(=C2)C=CC=C3.C(F)(F)(F)S(=O)(=O)[N-]S(=O)(=O)C(F)(F)F","-","-","AUTO_2103","C2083_A0048","A132065","-","-","-","45.0","Celsius","-","-","-","-","45.0","Celsius","-","-","-","-","","-",""
"C1=CC=C(C=C1)CN2C=C[N+](=C2)CC3=CC=CC=C3.C(F)(F)(F)S(=O)(=O)[N-]S(=O)(=O)C(F)(F)F","-","-","AUTO_2104","C0841_A0048","A132065","-","-","-","42.0","Celsius","-","-","-","-","42.0","Celsius","-","-","-","-","","-",""
"CCCC[N+](C)(C)C.C(F)(F)(F)S(=O)(=O)[N-]S(=O)(=O)C(F)(F)F","-","-","AUTO_2105","C1095_A0048","A132065","-","-","-","19.0","Celsius","-","-","-","-","19.0","Celsius","-","-","-","-","","-",""
"CCCCCCCCCC[N+]=1C=CN(C1)C.FC(S(=O)(=O)[O-])(F)F","-","-","AUTO_2106","C0515_A0084","A132065","-","-","-","23.0","Celsius","-","-","-","-","23.0","Celsius","-","-","-","-","","-",""
"C(C)[N+]1=CC(=CC=C1)C.FC(C(=O)[O-])(C(C(C(F)(F)F)(F)F)(F)F)F","-","-","AUTO_2107","C1187_A0350","A132065","-","-","-","2.0","Celsius","-","-","-","-","2.0","Celsius","-","-","-","-","","-",""
"CCCC[N+]1(C)CCCC1.FC(F)(F)C(F)(F)C(F)(F)C(F)(F)S(=O)(=O)[N-]S(=O)(=O)C(F)(F)C(F)(F)C(F)(F)C(F)(F)F","-","-","AUTO_2108","C0315_A0028","A132065","-","-","-","98.0","Celsius","-","-","-","-","98.0","Celsius","-","-","-","-","","-",""
"CC[N+]1(C)CCCC1.FC(F)(F)C(F)(F)C(F)(F)C(F)(F)S(=O)(=O)[N-]S(=O)(=O)C(F)(F)C(F)(F)C(F)(F)C(F)(F)F","-","-","AUTO_2109","C0876_A0028","A132065","-","-","-","155.0","Celsius","-","-","-","-","155.0","Celsius","-","-","-","-","","-",""
"OCC[N+](C)(C)C.FC(F)(F)C(F)(F)C(F)(F)C(F)(F)S(=O)(=O)[N-]S(=O)(=O)C(F)(F)C(F)(F)C(F)(F)C(F)(F)F","-","-","AUTO_2110","C0482_A0028","A132065","-","-","-","30.0","Celsius","-","-","-","-","30.0","Celsius","-","-","-","-","","-",""
"OCC[N+](C)(C)C.FC(C(C(C(F)(F)F)(F)F)(F)F)(S(=O)(=O)[O-])F","-","-","AUTO_2111","C0482_A0079","A132065","-","-","-","163.0","Celsius","-","-","-","-","163.0","Celsius","-","-","-","-","","-",""
"CCCCCCCCCC[N+]=1C=CN(C1)C.F[B-](F)(F)F","-","-","AUTO_2112","C0515_A0020","A132065","-","-","-","7.0","Celsius","-","-","-","-","7.0","Celsius","-","-","-","-","","-",""
"OCC[N+](C)(C)C.C(F)(F)(F)S(=O)(=O)[N-]S(=O)(=O)C(F)(F)F","-","-","AUTO_2113","C0482_A0048","A132065","-","-","-","33.0","Celsius","-","-","-","-","33.0","Celsius","-","-","-","-","","-",""
"CC[N+]1=CC=CC=C1.S(C)(=O)(=O)[O-]","-","-","AUTO_2114","C0062_A0054","A132065","-","-","-","62.0","Celsius","-","-","-","-","62.0","Celsius","-","-","-","-","","-",""
"CC[N+]1=CC=CC=C1.FC(S(=O)(=O)[O-])(F)F","-","-","AUTO_2115","C0062_A0084","A132065","-","-","-","32.0","Celsius","-","-","-","-","32.0","Celsius","-","-","-","-","","-",""
"CCCCCCCC[N+](CCCCCCCC)(CCCCCCCC)C.FC(C(=O)[O-])(F)F","-","-","AUTO_2116","C0979_A0064","A132065","-","-","-","12.0","Celsius","-","-","-","-","12.0","Celsius","-","-","-","-","","-",""
"CCCC[N+]1(C)CCCC1.FC(S(=O)(=O)[O-])(F)F","-","-","AUTO_2117","C0315_A0084","A132065","-","-","-","5.0","Celsius","-","-","-","-","5.0","Celsius","-","-","-","-","","-",""
"CCC[N+]=1C=CN(C1)C.[I-]","-","-","AUTO_2118","C0811_A0069","A132065","-","-","-","18.0","Celsius","-","-","-","-","18.0","Celsius","-","-","-","-","","-",""
"C1=CC=C2C(=C1)[NH+]=CS2.F[B-](F)(F)F","-","-","AUTO_2119","C2084_A0020","A132065","-","-","-","125.0","Celsius","-","-","-","-","125.0","Celsius","-","-","-","-","","-",""
"C1=CC=C2C(=C1)[NH+]=CS2.S(=O)(=O)([O-])C1=CC=C(C)C=C1","-","-","AUTO_2120","C2084_A0030","A132065","-","-","-","120.0","Celsius","-","-","-","-","120.0","Celsius","-","-","-","-","","-",""
"C1=CC=C2C(=C1)[NH+]=CS2.S(C)(=O)(=O)[O-]","-","-","AUTO_2121","C2084_A0054","A132065","-","-","-","105.0","Celsius","-","-","-","-","105.0","Celsius","-","-","-","-","","-",""
"C1=CC=C2C(=C1)[NH+]=CS2.FC(S(=O)(=O)[O-])(F)F","-","-","AUTO_2122","C2084_A0084","A132065","-","-","-","128.0","Celsius","-","-","-","-","128.0","Celsius","-","-","-","-","","-",""
"CCCC[N+]=1C=CN(C1)C.S(=O)(=O)(OCCCCCCCC)[O-]","-","-","AUTO_2123","C0505_A0114","A132065","-","-","-","34.0","Celsius","-","-","-","-","34.0","Celsius","-","-","-","-","","-",""
"[N-]=[N+]=NCCN1C=N[N+](=C1)C.[N+](=O)([O-])[O-]","-","-","AUTO_2128","C0583_A0090","A132065","-","-","-","-56.0","Celsius","-","-","-","-","-56.0","Celsius","-","-","-","-","","-",""
"[N-]=[N+]=NC1=N[N+](=CN1C)C.[I-]","-","-","AUTO_2130","C0175_A0069","A132065","-","-","-","116.0","Celsius","-","-","-","-","116.0","Celsius","-","-","-","-","","-",""
"C[N+]1=CN(C=N1)N.[I-]","-","-","AUTO_2131","C0391_A0069","A132065","-","-","-","101.0","Celsius","-","-","-","-","101.0","Celsius","-","-","-","-","","-",""
"C[N+]=1C=NN(C1)C.I[I-]I","-","-","AUTO_2132","C0593_A0351","A132065","-","-","-","110.0","Celsius","-","-","-","-","110.0","Celsius","-","-","-","-","","-",""
"[N-]=[N+]=NC1=NC=C[NH2+]1.[O-]Cl(=O)(=O)=O","-","-","AUTO_2133","C2086_A0051","A132065","-","-","-","116.0","Celsius","-","-","-","-","116.0","Celsius","-","-","-","-","","-",""
"[N-]=[N+]=NC1=NC=C[NH2+]1.[N+](=O)([O-])[O-]","-","-","AUTO_2134","C2086_A0090","A132065","-","-","-","124.0","Celsius","-","-","-","-","124.0","Celsius","-","-","-","-","","-",""
"CN1[NH+]=C(N(N1)C)C.[N+](=O)([O-])[O-]","-","-","AUTO_2135","C0420_A0090","A132065","-","-","-","94.0","Celsius","-","-","-","-","94.0","Celsius","-","-","-","-","","-",""
"[N-]=[N+]=NC1=N[NH2+]C=N1.[O-]Cl(=O)(=O)=O","-","-","AUTO_2136","C0689_A0051","A132065","-","-","-","123.0","Celsius","-","-","-","-","123.0","Celsius","-","-","-","-","","-",""
"CC(C[N+]=1C=CN(C1)C)C.C(F)(F)(F)S(=O)(=O)[N-]S(=O)(=O)C(F)(F)F","-","-","AUTO_2137","C0267_A0048","A132065","-","-","-","-16.0","Celsius","-","-","-","-","-16.0","Celsius","-","-","-","-","","-",""
"C[NH+]1C=CN(C1)CCCCN2C=C[NH+](C2)C.F[P-](F)(F)(F)(F)F","-","-","AUTO_2138","C2087_A0011","A132065","-","-","-","118.0","Celsius","-","-","-","-","118.0","Celsius","-","-","-","-","","-",""
"CC[N+]1=CC=CC=C1.F[P-](F)(F)(F)(F)F","-","-","AUTO_2139","C0062_A0011","A132065","-","-","-","103.0","Celsius","-","-","-","-","103.0","Celsius","-","-","-","-","","-",""
"CC[NH+](CC=C)CC.FC(S(=O)(=O)[O-])(F)F","-","-","AUTO_2140","C2088_A0084","A132065","-","-","-","-14.0","Celsius","-","-","-","-","-14.0","Celsius","-","-","-","-","","-",""
"CCC[NH+](C)C.FC(S(=O)(=O)[O-])(F)F","-","-","AUTO_2141","C2089_A0084","A132065","-","-","-","20.0","Celsius","-","-","-","-","20.0","Celsius","-","-","-","-","","-",""
"CC[NH+](CC)C.FC(S(=O)(=O)[O-])(F)F","-","-","AUTO_2142","C2090_A0084","A132065","-","-","-","-6.0","Celsius","-","-","-","-","-6.0","Celsius","-","-","-","-","","-",""
"CCC[NH+](CC)CC.FC(S(=O)(=O)[O-])(F)F","-","-","AUTO_2143","C2091_A0084","A132065","-","-","-","-14.0","Celsius","-","-","-","-","-14.0","Celsius","-","-","-","-","","-",""
"C=CC[NH+](C)C.FC(S(=O)(=O)[O-])(F)F","-","-","AUTO_2144","C2092_A0084","A132065","-","-","-","16.0","Celsius","-","-","-","-","16.0","Celsius","-","-","-","-","","-",""
"CCC[NH+](CCC)C.FC(S(=O)(=O)[O-])(F)F","-","-","AUTO_2145","C2093_A0084","A132065","-","-","-","17.0","Celsius","-","-","-","-","17.0","Celsius","-","-","-","-","","-",""
"C=CC[NH+](CC=C)C.FC(S(=O)(=O)[O-])(F)F","-","-","AUTO_2146","C2094_A0084","A132065","-","-","-","-19.0","Celsius","-","-","-","-","-19.0","Celsius","-","-","-","-","","-",""
"CCCCCCCC[N+]=1C=CC=C2C1C=CC=C2.C(F)(F)(F)S(=O)(=O)[N-]S(=O)(=O)C(F)(F)F","-","-","AUTO_2147","C2095_A0048","A132065","-","-","-","48.0","Celsius","-","-","-","-","48.0","Celsius","-","-","-","-","","-",""
"O[NH3+].[O-]Cl(=O)(=O)=O","-","-","AUTO_2148","C2096_A0051","A132065","-","-","-","88.0","Celsius","-","-","-","-","88.0","Celsius","-","-","-","-","","-",""
"OCC[N+](C)(C)C.FC(C(=O)[O-])(F)F","-","-","AUTO_2149","C0482_A0064","A132065","-","-","-","32.0","Celsius","-","-","-","-","32.0","Celsius","-","-","-","-","","-",""
"OCC[N+](C)(C)C.FC(C(=O)[O-])(C(F)(F)F)F","-","-","AUTO_2150","C0482_A0352","A132065","-","-","-","71.0","Celsius","-","-","-","-","71.0","Celsius","-","-","-","-","","-",""
"OCC[N+](C)(C)C.[O-]C(=O)C(C(C(F)(F)F)(F)F)(F)F","-","-","AUTO_2151","C0482_A0186","A132065","-","-","-","39.0","Celsius","-","-","-","-","39.0","Celsius","-","-","-","-","","-",""
"OCC[N+](C)(C)C.FC(C(=O)[O-])(C(C(C(F)(F)F)(F)F)(F)F)F","-","-","AUTO_2152","C0482_A0350","A132065","-","-","-","23.0","Celsius","-","-","-","-","23.0","Celsius","-","-","-","-","","-",""
"OCC[N+](C)(C)C.FC(C(=O)[O-])(C(C(C(C(F)(F)F)(F)F)(F)F)(F)F)F","-","-","AUTO_2153","C0482_A0353","A132065","-","-","-","47.0","Celsius","-","-","-","-","47.0","Celsius","-","-","-","-","","-",""
"OCC[N+](C)(C)C.FC(C(=O)[O-])(C(C(C(C(C(F)(F)F)(F)F)(F)F)(F)F)(F)F)F","-","-","AUTO_2154","C0482_A0354","A132065","-","-","-","48.0","Celsius","-","-","-","-","48.0","Celsius","-","-","-","-","","-",""
"OCC[N+](C)(C)C.[O-]C(=O)C(C(C(C(C(C(C(F)(F)F)(F)F)(F)F)(F)F)(F)F)(F)F)(F)F","-","-","AUTO_2155","C0482_A0188","A132065","-","-","-","64.0","Celsius","-","-","-","-","64.0","Celsius","-","-","-","-","","-",""
"[NH4+].[F-]","-","-","AUTO_2156","C1273_A0347","A132065","-","-","-","110.0","Celsius","-","-","-","-","110.0","Celsius","-","-","-","-","","-",""
"CCCCCCCC[P+](CCCCCCCC)(CCCCCCCC)CCCCCCCC.ClC1=CC(=C(OC(C(=O)[O-])C)C=C1)C","-","-","AUTO_2157","C1505_A0343","A132065","-","-","-","10.0","Celsius","-","-","-","-","10.0","Celsius","-","-","-","-","","-",""
"CCCC[N+]=1C=CN(C1)C.ClC1=CC(=C(OC(C(=O)[O-])C)C=C1)C","-","-","AUTO_2158","C0505_A0343","A132065","-","-","-","6.0","Celsius","-","-","-","-","6.0","Celsius","-","-","-","-","","-",""
"CCCCCCCCCCCC[N+]1=CC=CC=C1.ClC1=C(OCC(=O)[O-])C=CC(=C1)Cl","-","-","AUTO_2159","C0527_A0341","A132065","-","-","-","-34.0","Celsius","-","-","-","-","-34.0","Celsius","-","-","-","-","","-",""
"CCCCCCCCCCCC[N+]1=CC=CC=C1.ClC1=CC(=C(OCC(=O)[O-])C=C1)C","-","-","AUTO_2160","C0527_A0340","A132065","-","-","-","-31.0","Celsius","-","-","-","-","-31.0","Celsius","-","-","-","-","","-",""
"CCCCCCCCCCCCCCCC[N+]1=CC=CC=C1.ClC1=CC(=C(OCC(=O)[O-])C=C1)C","-","-","AUTO_2161","C0428_A0340","A132065","-","-","-","6.5","Celsius","-","-","-","-","6.5","Celsius","-","-","-","-","","-",""
"CCCCCCCCCC[N+](C)(C)CCO.[Br-]","-","-","AUTO_2162","C1562_A0004","A132065","-","-","-","156.0","Celsius","-","-","-","-","156.0","Celsius","-","-","-","-","","-",""
"CCCCCCCCCC[N+]1(C)CCOCC1.[Br-]","-","-","AUTO_2163","C2098_A0004","A132065","-","-","-","188.0","Celsius","-","-","-","-","188.0","Celsius","-","-","-","-","","-",""
"CCCCCCCCCCCC[N+](CCOCCO)(C)C.[Br-]","-","-","AUTO_2164","C2099_A0004","A132065","-","-","-","56.0","Celsius","-","-","-","-","56.0","Celsius","-","-","-","-","","-",""
"CC(C)[NH3+].ClC1=C(OCC(=O)[O-])C=CC(=C1)Cl","-","-","AUTO_2165","C2100_A0341","A132065","-","-","-","121.0","Celsius","-","-","-","-","121.0","Celsius","-","-","-","-","","-",""
"C[NH2+]C.ClC1=C(OCC(=O)[O-])C=CC(=C1)Cl","-","-","AUTO_2166","C1428_A0341","A132065","-","-","-","120.0","Celsius","-","-","-","-","120.0","Celsius","-","-","-","-","","-",""
"OCC[NH2+]CCO.ClC1=C(OCC(=O)[O-])C=CC(=C1)Cl","-","-","AUTO_2167","C1163_A0341","A132065","-","-","-","83.0","Celsius","-","-","-","-","83.0","Celsius","-","-","-","-","","-",""
"OCC[NH+](CCO)CCO.ClC1=C(OCC(=O)[O-])C=CC(=C1)Cl","-","-","AUTO_2168","C1164_A0341","A132065","-","-","-","143.0","Celsius","-","-","-","-","143.0","Celsius","-","-","-","-","","-",""
"C(CCC)[P+](CC(=O)O)(CCCC)CCCC.C(C)C(COC(C(CC(=O)OCC(CCCC)CC)S(=O)(=O)[O-])=O)CCCC","-","-","AUTO_2169","C2103_A0325","A132065","-","-","-","38.0","Celsius","-","-","-","-","38.0","Celsius","-","-","-","-","","-",""
"C(CCC)[P+](CC)(CCCC)CCCC.C(CCCCCCCCCCCCCCCCC)(=O)[O-]","-","-","AUTO_2170","C1197_A0324","A132065","-","-","-","-21.0","Celsius","-","-","-","-","-21.0","Celsius","-","-","-","-","","-",""
"CCCCCCCCCCCCCCCC[N+](C)(C)C.CC(C1=CC2=CCC3C(C2CC1)(C)CCCC3(C)C(=O)[O-])C","-","-","AUTO_2171","C2022_A0356","A132065","-","-","-","79.0","Celsius","-","-","-","-","79.0","Celsius","-","-","-","-","","-",""
"CCCCCCCCCCCCCCCCCC[N+](C)(C)C.CC(C1=CC2=CCC3C(C2CC1)(C)CCCC3(C)C(=O)[O-])C","-","-","AUTO_2172","C2023_A0356","A132065","-","-","-","-15.0","Celsius","-","-","-","-","-15.0","Celsius","-","-","-","-","","-",""
"CCCCCCCCCC[N+](CCCCCCCCCC)(C)C.CC(C1=CC2=CCC3C(C2CC1)(C)CCCC3(C)C(=O)[O-])C","-","-","AUTO_2173","C0514_A0356","A132065","-","-","-","12.0","Celsius","-","-","-","-","12.0","Celsius","-","-","-","-","","-",""
"CCCC[N+]=1C=CN(C1)C.[NH-]S(=O)(=O)C(F)(F)F","-","-","AUTO_2174","C0505_A0357","A132065","-","-","-","17.0","Celsius","-","-","-","-","17.0","Celsius","-","-","-","-","","-",""
"CCCC[N+]1(C)CCCC1.[NH-]S(=O)(=O)C(F)(F)F","-","-","AUTO_2175","C0315_A0357","A132065","-","-","-","16.0","Celsius","-","-","-","-","16.0","Celsius","-","-","-","-","","-",""
"CCCC[N+](C)(C)C.[NH-]S(=O)(=O)C(F)(F)F","-","-","AUTO_2176","C1095_A0357","A132065","-","-","-","56.0","Celsius","-","-","-","-","56.0","Celsius","-","-","-","-","","-",""
"CCCCCCCC[N+](CCCCCCCC)(CCCCCCCC)C.[NH-]S(=O)(=O)C(F)(F)F","-","-","AUTO_2177","C0979_A0357","A132065","-","-","-","11.0","Celsius","-","-","-","-","11.0","Celsius","-","-","-","-","","-",""
"C[N+]1=NN2CCCCC2=C1.[I-]","-","-","AUTO_2178","C2107_A0069","A132065","-","-","-","134.0","Celsius","-","-","-","-","134.0","Celsius","-","-","-","-","","-",""
"CC[N+]1=NN2CCCCC2=C1.[I-]","-","-","AUTO_2179","C2108_A0069","A132065","-","-","-","114.0","Celsius","-","-","-","-","114.0","Celsius","-","-","-","-","","-",""
"CCC[N+]1=NN2CCCCC2=C1.[I-]","-","-","AUTO_2180","C2109_A0069","A132065","-","-","-","83.0","Celsius","-","-","-","-","83.0","Celsius","-","-","-","-","","-",""
"CCCC[N+]1=NN2CCCCC2=C1.[I-]","-","-","AUTO_2181","C2110_A0069","A132065","-","-","-","73.0","Celsius","-","-","-","-","73.0","Celsius","-","-","-","-","","-",""
"COC(/C=C/C1=CC=C(OCCC[N+]2=CN(C=C2)C)C=C1)=O.C(F)(F)(F)S(=O)(=O)[N-]S(=O)(=O)C(F)(F)F","-","-","AUTO_2182","C2048_A0048","A132065","-","-","-","84.0","Celsius","-","-","-","-","84.0","Celsius","-","-","-","-","","-",""
"COC(/C=C/C1=CC=C(OC(CC[N+]2=CN(C=C2)C)CCC)C=C1)=O.C(F)(F)(F)S(=O)(=O)[N-]S(=O)(=O)C(F)(F)F","-","-","AUTO_2183","C2057_A0048","A132065","-","-","-","53.0","Celsius","-","-","-","-","53.0","Celsius","-","-","-","-","","-",""
"C[NH+](C)CCOC(C1=CC=CC=C1)C2=CC=CC=C2.CC(C)CC1=CC=C(C=C1)C(C)C([O-])=O","-","-","AUTO_2184","C2115_A0358","A132065","-","-","-","-36.0","Celsius","-","-","-","-","-36.0","Celsius","-","-","-","-","","-",""
"CCCCCCCCCCCC[N+](C)(C)CC(O)=O.ClC1=C(OCC(=O)[O-])C=CC(=C1)Cl","-","-","AUTO_2185","C2119_A0341","A132065","-","-","-","64.0","Celsius","-","-","-","-","64.0","Celsius","-","-","-","-","","-",""
"CCCCCCCCCCCC[N+](C)(C)CC(O)=O.ClC1=CC(=C(OCC(=O)[O-])C=C1)C","-","-","AUTO_2186","C2119_A0340","A132065","-","-","-","37.0","Celsius","-","-","-","-","37.0","Celsius","-","-","-","-","","-",""
"CCCCCCCCCCCC[N+](C)(C)CC(O)=O.ClC=1C(=C(C(=O)[O-])C(=CC1)Cl)OC","-","-","AUTO_2187","C2119_A0342","A132065","-","-","-","27.0","Celsius","-","-","-","-","27.0","Celsius","-","-","-","-","","-",""
"C1(=CC=CC=C1)[N+]=2N(C(=CC2C)C)CCCCCCC.F[B-](F)(F)F","-","-","AUTO_2188","C2160_A0020","A132065","-","-","-","56.0","Celsius","-","-","-","-","56.0","Celsius","-","-","-","-","","-",""
"CC1=CC(=[N+](N1C)C2=CC=CC=C2)C.F[P-](F)(F)(F)(F)F","-","-","AUTO_2189","C2062_A0011","A132065","-","-","-","125.0","Celsius","-","-","-","-","125.0","Celsius","-","-","-","-","","-",""
"CCN1C(C)=CC(=[N+]1C2=CC=CC=C2)C.F[P-](F)(F)(F)(F)F","-","-","AUTO_2190","C2059_A0011","A132065","-","-","-","95.0","Celsius","-","-","-","-","95.0","Celsius","-","-","-","-","","-",""
"CCCN1C(C)=CC(=[N+]1C2=CC=CC=C2)C.F[P-](F)(F)(F)(F)F","-","-","AUTO_2191","C2061_A0011","A132065","-","-","-","102.0","Celsius","-","-","-","-","102.0","Celsius","-","-","-","-","","-",""
"CCCCN1C(C)=CC(=[N+]1C2=CC=CC=C2)C.F[P-](F)(F)(F)(F)F","-","-","AUTO_2192","C2060_A0011","A132065","-","-","-","61.0","Celsius","-","-","-","-","61.0","Celsius","-","-","-","-","","-",""
"C1(=CC=CC=C1)[N+]=2N(C(=CC2C)C)CCCCC.F[P-](F)(F)(F)(F)F","-","-","AUTO_2193","C2158_A0011","A132065","-","-","-","62.0","Celsius","-","-","-","-","62.0","Celsius","-","-","-","-","","-",""
"C1(=CC=CC=C1)[N+]=2N(C(=CC2C)C)CCCCCC.F[P-](F)(F)(F)(F)F","-","-","AUTO_2194","C2159_A0011","A132065","-","-","-","39.0","Celsius","-","-","-","-","39.0","Celsius","-","-","-","-","","-",""
"C1(=CC=CC=C1)[N+]=2N(C(=CC2C)C)CCCCCCC.F[P-](F)(F)(F)(F)F","-","-","AUTO_2195","C2160_A0011","A132065","-","-","-","43.0","Celsius","-","-","-","-","43.0","Celsius","-","-","-","-","","-",""
"C(CCCCCCC)[NH+](CCCCCCCC)CCCCCCCC.C(F)(F)(F)S(=O)(=O)[N-]S(=O)(=O)C(F)(F)F","-","-","AUTO_2196","C2117_A0048","A132065","-","-","-","4.0","Celsius","-","-","-","-","4.0","Celsius","-","-","-","-","","-",""
"C(CCCCC)[P+](C1=CC=CC=C1)(C2=CC=CC=C2)C3=CC=CC=C3.[Br-]","-","-","AUTO_2197","C2174_A0004","A132065","-","-","-","202.0","Celsius","-","-","-","-","202.0","Celsius","-","-","-","-","","-",""
"C(CCCCC)[P+](C1=CC=CC=C1)(C2=CC=CC=C2)C3=CC=CC=C3.C(F)(F)(F)S(=O)(=O)[N-]S(=O)(=O)C(F)(F)F","-","-","AUTO_2198","C2174_A0048","A132065","-","-","-","90.0","Celsius","-","-","-","-","90.0","Celsius","-","-","-","-","","-",""
"CCCC[N+]1=CN(C)C(I)=C1I.[I-]","-","-","AUTO_2199","C2173_A0069","A132065","-","-","-","230.0","Celsius","-","-","-","-","230.0","Celsius","-","-","-","-","","-",""
"CCCC[N+]1=CN(C)C(I)=C1I.C(#N)[N-]C#N","-","-","AUTO_2200","C2173_A0056","A132065","-","-","-","130.0","Celsius","-","-","-","-","130.0","Celsius","-","-","-","-","","-",""
"CCCC[N+]1=CN(C)C(I)=C1I.IC1=C(C=CC=C1)S(=O)(=O)[O-]","-","-","AUTO_2201","C2173_A0379","A132065","-","-","-","174.0","Celsius","-","-","-","-","174.0","Celsius","-","-","-","-","","-",""
"CC[N+]1(C)CCCCC1.ClC1=CC(=C(OCCCC(=O)[O-])C=C1)C","-","-","AUTO_2202","C0871_A0380","A132065","-","-","-","40.0","Celsius","-","-","-","-","40.0","Celsius","-","-","-","-","","-",""
"CCC[N+]1(C)CCCCC1.ClC1=CC(=C(OCCCC(=O)[O-])C=C1)C","-","-","AUTO_2203","C0155_A0380","A132065","-","-","-","60.0","Celsius","-","-","-","-","60.0","Celsius","-","-","-","-","","-",""
"CCCC[N+]1(C)CCCCC1.ClC1=CC(=C(OCCCC(=O)[O-])C=C1)C","-","-","AUTO_2204","C0137_A0380","A132065","-","-","-","64.0","Celsius","-","-","-","-","64.0","Celsius","-","-","-","-","","-",""
"CCCCC[N+]1(C)CCCCC1.ClC1=CC(=C(OCCCC(=O)[O-])C=C1)C","-","-","AUTO_2205","C1591_A0380","A132065","-","-","-","40.0","Celsius","-","-","-","-","40.0","Celsius","-","-","-","-","","-",""