"SMILES","CASRN","EXTERNALID","N","NAME","ARTICLEID","PUBMEDID","PAGE","TABLE","Melting Point","UNIT {Melting Point}","Decomposition","UNIT {Decomposition}","Glass-transition temperature (Tg)","UNIT {Glass-transition temperature (Tg)}","Melting Point {measured, converted}","UNIT {Melting Point}","Decomposition {measured, converted}","UNIT {Decomposition}","Glass-transition temperature (Tg) {measured, converted}","UNIT {Glass-transition temperature (Tg)}","weight loss","UNIT {weight loss}","Solvent"
"F[B-](F)(F)F.CCCCCCCCCCCCOC(=O)C[N+](C)(C)C","-","-","AUTO_2021","-","A140250","-","-","-","-","-","316.0","Celsius","-","-","-","-","316.0","Celsius","-","-","","-",""
"[O-]S(=O)(=O)C(F)(F)F.CCO[C@H]1CO[C@H](C[N+]2=CC=CC=C2)[C@H]1OCC","-","-","AUTO_2022","-","A139518","16718320","-","-","-","-","316.0","Celsius","-","-","-","-","316.0","Celsius","-","-","","-",""
"CCCC[N+]1=CC(C)=CC=C1.FC(F)(F)S(=O)(=O)[N-]S(=O)(=O)C(F)(F)F","-","-","AUTO_2023","-","A140250","-","-","-","-","-","316.85","Celsius","-","-","-","-","316.85","Celsius","-","-","","-",""
"OS([O-])(=O)=O.CN1C=C[N+](CCCS(O)(=O)=O)=C1","-","-","AUTO_2026","-","A140250","-","-","-","-","-","317.4","Celsius","-","-","-","-","317.4","Celsius","-","-","","-",""
"FCC[N+]1=CC=CC=N1.FC(F)(F)S(=O)(=O)[N-]S(=O)(=O)C(F)(F)F","-","-","AUTO_2027","-","A140250","-","-","-","-","-","318.0","Celsius","-","-","-","-","318.0","Celsius","-","-","","-",""
"CCOCCOCC[N+]1(C)CCOC1.FC(F)(F)S(=O)(=O)[N-]S(=O)(=O)C(F)(F)F","-","-","AUTO_2028","-","A139508","15455143","-","-","-","-","318.0","Celsius","-","-","-","-","318.0","Celsius","-","-","","-",""
"CC1=CC=C(C=C1)S([O-])(=O)=O.CCCCCCCC[P+](CCCCCCCC)(CCCCCCCC)CCC(F)(F)C(F)(F)C(F)(F)C(F)(F)C(F)(F)C(F)(F)C(F)(F)C(F)(F)C(F)(F)C(F)(F)F","-","-","AUTO_2030","-","A140250","-","-","-","-","-","318.0","Celsius","-","-","-","-","318.0","Celsius","-","-","","-",""
"[N-]1C=NC=N1.CCCCCCCCCCCCCC[P+](CCCCCC)(CCCCCC)CCCCCC","-","-","AUTO_2031","-","A140250","-","-","-","-","-","319.0","Celsius","-","-","-","-","319.0","Celsius","-","-","","-",""
"[C@H](N)(CCC(O)=O)C([O-])=O.CCCC[P+](CCCC)(CCCC)CCCC","-","-","AUTO_2032","-","A139566","24811264","-","-","-","-","319.0","Celsius","-","-","-","-","319.0","Celsius","-","-","","-",""
"F[P-](F)(F)(F)(F)C#N.CCCC[N+](CCCC)(CCCC)CCCC","-","-","AUTO_2033","-","A140250","-","-","","-","-","319.0","Celsius","-","-","-","-","319.0","Celsius","-","-","","-",""
"CC1=CC=C(C=C1)S([O-])(=O)=O.CCCCCCCC[P+](CCCCCCCC)(CCCCCCCC)CCC(F)(F)C(F)(F)C(F)(F)C(F)(F)C(F)(F)C(F)(F)F","-","-","AUTO_2034","-","A139578","26849385","-","-","-","-","319.0","Celsius","-","-","-","-","319.0","Celsius","-","-","","-",""
"F[B-](F)(F)F.CCCCCCCCCCCCCCOC(=O)C[N+](C)(C)C","-","-","AUTO_2036","-","A139518","16718320","-","-","-","-","319.0","Celsius","-","-","-","-","319.0","Celsius","-","-","","-",""
"N#C[C-](C#N)C#N.CCC[N+]1(C)CCCC1","-","-","AUTO_2043","-","A140250","-","-","-","-","-","320.0","Celsius","-","-","-","-","320.0","Celsius","-","-","","-",""
"N#C[C-](C#N)C#N.CC[N+]1(C)CCCC1","-","-","AUTO_2045","-","A140250","-","-","-","-","-","320.0","Celsius","-","-","-","-","320.0","Celsius","-","-","","-",""
"F[B-](F)(F)F.CCCC[P+](CCCC)(CCCC)CCC(F)(F)C(F)(F)C(F)(F)C(F)(F)C(F)(F)C(F)(F)F","-","-","AUTO_2046","-","A140250","-","-","-","-","-","320.0","Celsius","-","-","-","-","320.0","Celsius","-","-","","-",""
"[I-].CCCC[N+]1=CN(C=C1)[C@@H](CC2=CC=CC=C2)C(=O)NCC3=CC=CC=C3","-","-","AUTO_2049","-","A140250","-","-","-","-","-","320.0","Celsius","-","-","-","-","320.0","Celsius","-","-","","-",""
"[I-].CCCC[N+]1=CN(C=C1)[C@@H](C(C)C)C(=O)NCC2=CC=CC=C2","-","-","AUTO_2050","-","A140250","-","-","-","-","-","320.0","Celsius","-","-","-","-","320.0","Celsius","-","-","","-",""
"F[B-](F)(F)F.CCCC[N+](CCCC)(CCCC)CC(=O)OCC","-","-","AUTO_2051","-","A140250","-","-","","-","-","320.0","Celsius","-","-","-","-","320.0","Celsius","-","-","","-",""
"COCCCNC(C)=[N+](C)C.FC(F)(F)S(=O)(=O)[N-]S(=O)(=O)C(F)(F)F","-","-","AUTO_2052","-","A140250","-","-","-","-","-","320.0","Celsius","-","-","-","-","320.0","Celsius","-","-","","-",""
"COCC[N+]1(C)CCOC1.FC(F)(F)S(=O)(=O)[N-]S(=O)(=O)C(F)(F)F","-","-","AUTO_2055","-","A140250","-","-","-","-","-","321.0","Celsius","-","-","-","-","321.0","Celsius","-","-","","-",""
"[O-][N+]([O-])=O.CCCCC(CC)CN1C=C[N+](CC(CC)CCCC)=C1","-","-","AUTO_2056","-","A139508","15455143","-","-","-","-","321.0","Celsius","-","-","-","-","321.0","Celsius","-","-","","-",""
"CC[NH3+].[O-]S(O)(=O)=O","-","-","AUTO_2057","-","A140250","-","-","","-","-","322.0","Celsius","-","-","-","-","322.0","Celsius","-","-","","-",""
"[Br-].CCCCCCCCC[N+]1=CN(C=C1)[C@@H](CC2=CC=CC=C2)C(=O)NCC3=CC=CC=C3","-","-","AUTO_2062","-","A140250","-","-","-","-","-","322.0","Celsius","-","-","-","-","322.0","Celsius","-","-","","-",""
"CCOCC[N+]1=CN(CCC#N)CC1.FC(F)(F)S(=O)(=O)[N-]S(=O)(=O)C(F)(F)F","-","-","AUTO_2063","-","A140250","-","-","-","-","-","322.99","Celsius","-","-","-","-","322.99","Celsius","-","-","","-",""
"OS([O-])(=O)=O.CCCC[N+]1=CC=C(C=C1)N(C)C","-","-","AUTO_2064","-","A140250","-","-","-","-","-","322.99","Celsius","-","-","-","-","322.99","Celsius","-","-","","-",""
"[I-].CCCCCCCC[P+](CCCCCCCC)(CCCCCCCC)CCC(F)(F)C(F)(F)C(F)(F)C(F)(F)C(F)(F)C(F)(F)F","-","-","AUTO_2065","-","A140250","-","-","-","-","-","323.0","Celsius","-","-","-","-","323.0","Celsius","-","-","","-",""
"OS([O-])(=O)=O.CCCCN1C=C[N+](CCCS(O)(=O)=O)=C1","-","-","AUTO_2066","-","A140250","-","-","-","-","-","323.0","Celsius","-","-","-","-","323.0","Celsius","-","-","","-",""
"N#C[N-]C#N.CCCCCCCCCCCCCCCCCCCCCCOC(=O)C[N+](C)(C)C","-","-","AUTO_2069","-","A140250","-","-","-","-","-","323.0","Celsius","-","-","-","-","323.0","Celsius","-","-","","-",""
"[I-].CCC[N+]1=C(C)N(C)C=C1","-","-","AUTO_2071","-","A140250","-","-","-","-","-","324.0","Celsius","-","-","-","-","324.0","Celsius","-","-","","-",""
"CC[N+](CC)(CC)CC.FS(=O)(=O)[N-]S(F)(=O)=O","-","-","AUTO_2072","-","A140250","-","-","-","-","-","324.0","Celsius","-","-","-","-","324.0","Celsius","-","-","","-",""
"FC(F)(F)S(=O)(=O)[N-]S(=O)(=O)C(F)(F)F.CCCCCC[N+]1=C(CCC)C(CC)=CC(CC)=C1","-","-","AUTO_2076","-","A140250","-","-","-","-","-","324.85","Celsius","-","-","-","-","324.85","Celsius","-","-","","-",""
"C[N+](C)(C)CC(O)=O.FC(F)(F)S(=O)(=O)[N-]S(=O)(=O)C(F)(F)F","-","-","AUTO_2078","-","A140250","-","-","-","-","-","325.0","Celsius","-","-","-","-","325.0","Celsius","-","-","","-",""
"[I-].CCCC[P+](CCCC)(CCCC)CCC(F)(F)C(F)(F)C(F)(F)C(F)(F)F","-","-","AUTO_2079","-","A139558","23289843","-","-","-","-","325.0","Celsius","-","-","-","-","325.0","Celsius","-","-","","-",""
"[I-].CCCC[P+](CCCC)(CCCC)CCC(F)(F)C(F)(F)C(F)(F)C(F)(F)C(F)(F)C(F)(F)C(F)(F)C(F)(F)C(F)(F)C(F)(F)F","-","-","AUTO_2080","-","A140250","-","-","-","-","-","325.0","Celsius","-","-","-","-","325.0","Celsius","-","-","","-",""
"[I-].CCCCCCCC[P+](CCCCCCCC)(CCCCCCCC)CCC(F)(F)C(F)(F)C(F)(F)C(F)(F)F","-","-","AUTO_2081","-","A140250","-","-","-","-","-","325.0","Celsius","-","-","-","-","325.0","Celsius","-","-","","-",""
"[Cl-].CCCC[N+]1=CN(C=C1)[C@@H](CC2=CC=CC=C2)C(=O)NCC3=CC=CC=C3","-","-","AUTO_2084","-","A140250","-","-","-","-","-","325.0","Celsius","-","-","-","-","325.0","Celsius","-","-","","-",""
"[O-]S(=O)(=O)C(F)(F)F.CO[C@@H]1CO[C@H](C[N+]2=CC=CC=C2)[C@@H]1OC","-","-","AUTO_2085","-","A140250","-","-","-","-","-","325.0","Celsius","-","-","-","-","325.0","Celsius","-","-","","-",""
"[N-]1C=CN=N1.CCCCCCCCCCCCCC[P+](CCCCCC)(CCCCCC)CCCCCC","-","-","AUTO_2087","-","A139566","24811264","-","-","-","-","326.0","Celsius","-","-","-","-","326.0","Celsius","-","-","","-",""
"CC[N+]1=CN(C)C=C1.F[P-](F)(F)(F)(F)C#N","-","-","AUTO_2089","-","A139578","26849385","-","","-","-","326.0","Celsius","-","-","-","-","326.0","Celsius","-","-","","-",""
"[O-]C(=O)C(F)(F)F.CN1C=C[N+](CCCS(O)(=O)=O)=C1","-","-","AUTO_2090","-","A140250","-","-","-","-","-","326.3","Celsius","-","-","-","-","326.3","Celsius","-","-","","-",""
"FC(F)(F)S(=O)(=O)[N-]S(=O)(=O)C(F)(F)F.CN1C=C[N+](CCCCCC(=O)C2=CC=C3OCCOCCOCCOCCOC3=C2)=C1","-","-","AUTO_2094","-","A140250","-","-","-","-","-","327.0","Celsius","-","-","-","-","327.0","Celsius","-","-","","-",""
"[Cl-].O=C(NCC1=CC=CC=C1)[C@H](CC2=CC=CC=C2)N3C=C[N+](CC4=CC=CC=C4)=C3","-","-","AUTO_2097","-","A140250","-","-","-","-","-","327.0","Celsius","-","-","-","-","327.0","Celsius","-","-","","-",""
"FC(F)(F)S(=O)(=O)[N-]S(=O)(=O)C(F)(F)F.CCCCCC[N+]1=C(CC)C(C)=CC(C)=C1","-","-","AUTO_2100","-","A140250","-","-","-","-","-","327.85","Celsius","-","-","-","-","327.85","Celsius","-","-","","-",""
"FC(F)(F)S(=O)(=O)[N-]S(=O)(=O)C(F)(F)F.CCCCN1C=C[N+](CCCCCC(=O)C2=CC=C3OCCOCCOCCOCCOC3=C2)=C1","-","-","AUTO_2103","-","A140250","-","-","-","-","-","328.0","Celsius","-","-","-","-","328.0","Celsius","-","-","","-",""
"[I-].C[P+](C)(C)CCC(F)(F)C(F)(F)C(F)(F)C(F)(F)C(F)(F)C(F)(F)F","-","-","AUTO_2104","-","A140250","-","-","-","-","-","328.0","Celsius","-","-","-","-","328.0","Celsius","-","-","","-",""
"N#C[N-]C#N.CC[N+]1=CN(CCCNS(=O)(=O)C2=CC=CC3=C(C=CC=C23)N(C)C)C=C1","-","-","AUTO_2105","-","A140250","-","-","-","-","-","328.0","Celsius","-","-","-","-","328.0","Celsius","-","-","","-",""
"F[B-](F)(F)F.CCCCCCCC[P+](CCCCCCCC)(CCCCCCCC)CCC(F)(F)C(F)(F)C(F)(F)C(F)(F)F","-","-","AUTO_2108","-","A140250","-","-","-","-","-","329.0","Celsius","-","-","-","-","329.0","Celsius","-","-","","-",""
"F[P-](F)(F)(F)(F)F.CCCCCCCCN1C=C[N+](CC2=CC=CC3=CC=CC=C23)=C1","-","-","AUTO_2109","-","A140250","-","-","","-","-","329.0","Celsius","-","-","-","-","329.0","Celsius","-","-","","-",""
"CC[N+](C)(C)CC=C.FC(F)(F)S(=O)(=O)[N-]S(=O)(=O)C(F)(F)F","-","-","AUTO_2110","-","A140250","-","-","-","-","-","329.0","Celsius","-","-","-","-","329.0","Celsius","-","-","","-",""
"CCCCCC[N+]1=CC=CC(C)=C1.FC(F)(F)S(=O)(=O)[N-]S(=O)(=O)C(F)(F)F","-","-","AUTO_2111","-","A140250","-","-","-","-","-","329.85","Celsius","-","-","-","-","329.85","Celsius","-","-","","-",""
"OS([O-])(=O)=O.CCCCCC[N+]1=CC=C(C=C1)N(C)C","-","-","AUTO_2112","-","A140250","-","-","-","-","-","329.99","Celsius","-","-","-","-","329.99","Celsius","-","-","","-",""
"OS([O-])(=O)=O.CCCC[N+]1=CN(C)C=C1","-","-","AUTO_2115","-","A140250","-","-","-","-","-","330.0","Celsius","-","-","-","-","330.0","Celsius","-","-","","-",""
"CC[N+](CC)(CC)CC.N#C[B-](C#N)(C#N)C#N","-","-","AUTO_2116","-","A139526","18022879","-","","-","-","330.0","Celsius","-","-","-","-","330.0","Celsius","-","-","","-",""
"[O-]S(=O)(=O)C(F)(F)F.CCCCCCCC[P+](CCCCCCCC)(CCCCCCCC)CCC(F)(F)C(F)(F)C(F)(F)C(F)(F)C(F)(F)C(F)(F)F","-","-","AUTO_2117","-","A140250","-","-","-","-","-","330.0","Celsius","-","-","-","-","330.0","Celsius","-","-","","-",""
"FC(F)(F)S(=O)(=O)[N-]S(=O)(=O)C(F)(F)F.CCCCCCCCC[N+]1=CN(C=C1)[C@@H](C(C)C)C(=O)NCCCC","-","-","AUTO_2118","-","A140250","-","-","-","-","-","330.0","Celsius","-","-","-","-","330.0","Celsius","-","-","","-",""
"F[P-](F)(F)(F)(F)F.CCCCCC[N+](CC)(CC)CC","-","-","AUTO_2122","-","A140250","-","-","","-","-","330.2","Celsius","-","-","-","-","330.2","Celsius","-","-","","-",""
"F[P-](F)(F)(F)(F)F.CCCCN1C=C[N+](CC2=CC=CC3=CC=CC=C23)=C1","-","-","AUTO_2124","-","A140250","-","-","","-","-","331.0","Celsius","-","-","-","-","331.0","Celsius","-","-","","-",""
"CCCCCC[N+]1=CC=CC=C1.FC(F)(F)S(=O)(=O)[N-]S(=O)(=O)C(F)(F)F","-","-","AUTO_2126","-","A140250","-","-","-","-","-","331.85","Celsius","-","-","-","-","331.85","Celsius","-","-","","-",""
"CCCCCCCC[N+]1=CC(C)=CC=C1.FC(F)(F)S(=O)(=O)[N-]S(=O)(=O)C(F)(F)F","-","-","AUTO_2127","-","A140250","-","-","-","-","-","331.85","Celsius","-","-","-","-","331.85","Celsius","-","-","","-",""
"F[B-](F)(F)F.CCCCCCCCCCCCCCCCOC(=O)C[N+](C)(C)C","-","-","AUTO_2129","-","A140250","-","-","-","-","-","332.0","Celsius","-","-","-","-","332.0","Celsius","-","-","","-",""
"F[P-](F)(F)(F)(F)F.CN1C=C[N+](CC2=CC=CC3=CC=CC=C23)=C1","-","-","AUTO_2130","-","A140250","-","-","","-","-","332.0","Celsius","-","-","-","-","332.0","Celsius","-","-","","-",""
"F[B-](F)(F)F.CCCCCCCCN1C=C[N+](CC2=CC=CC3=CC=CC=C23)=C1","-","-","AUTO_2131","-","A140250","-","-","","-","-","332.0","Celsius","-","-","-","-","332.0","Celsius","-","-","","-",""
"F[B-](F)(F)F.CC[N+](CC)(CC)CC","-","-","AUTO_2132","-","A139568","25241963","-","","-","-","332.84","Celsius","-","-","-","-","332.84","Celsius","-","-","","-",""
"CCCCN1C=C[N+](C)=N1.FC(F)(F)S(=O)(=O)[N-]S(=O)(=O)C(F)(F)F","-","-","AUTO_2133","-","A139546","20499940","-","-","-","-","333.0","Celsius","-","-","-","-","333.0","Celsius","-","-","","-",""
"F[B-](F)(F)F.CCCCCCCC[P+](CCCCCCCC)(CCCCCCCC)CCC(F)(F)C(F)(F)C(F)(F)C(F)(F)C(F)(F)C(F)(F)C(F)(F)C(F)(F)C(F)(F)C(F)(F)F","-","-","AUTO_2134","-","A140250","-","-","-","-","-","333.0","Celsius","-","-","-","-","333.0","Celsius","-","-","","-",""
"OS([O-])(=O)=O.CCCCCCCC[N+]1=CC=C(C=C1)N(C)C","-","-","AUTO_2136","-","A140250","-","-","-","-","-","333.99","Celsius","-","-","-","-","333.99","Celsius","-","-","","-",""
"F[B-](F)(F)F.CCCC[P+](CCCC)(CCCC)CCC(F)(F)C(F)(F)C(F)(F)C(F)(F)F","-","-","AUTO_2137","-","A140250","-","-","-","-","-","334.0","Celsius","-","-","-","-","334.0","Celsius","-","-","","-",""
"[I-].CCCCCCCC[P+](CCCCCCCC)(CCCCCCCC)CCC(F)(F)C(F)(F)C(F)(F)C(F)(F)C(F)(F)C(F)(F)C(F)(F)C(F)(F)C(F)(F)C(F)(F)F","-","-","AUTO_2138","-","A140250","-","-","-","-","-","334.0","Celsius","-","-","-","-","334.0","Celsius","-","-","","-",""
"[N-]=C=S.CCCCCCCCCCCCCC[N+]1=C2CCCCCN2CCC1","-","-","AUTO_2139","-","A140250","-","-","-","-","-","334.0","Celsius","-","-","-","-","334.0","Celsius","-","-","","-",""
"FC(F)(F)S(=O)(=O)[N-]S(=O)(=O)C(F)(F)F.CCCCCCCCCCCC[N+]1=CSC=C1","-","-","AUTO_2141","-","A140250","-","-","-","-","-","334.0","Celsius","-","-","-","-","334.0","Celsius","-","-","","-",""
"F[B-](F)(F)F.CCCCN1C=C[N+](CC2=CC=CC3=CC=CC=C23)=C1","-","-","AUTO_2143","-","A140250","-","-","","-","-","335.0","Celsius","-","-","-","-","335.0","Celsius","-","-","","-",""
"OP(O)([O-])=O.CN1C=C[N+](CCCS(O)(=O)=O)=C1","-","-","AUTO_2144","-","A140250","-","-","-","-","-","335.2","Celsius","-","-","-","-","335.2","Celsius","-","-","","-",""
"CS([O-])(=O)=O.CN(C)C1=CC=[N+](CCCS(O)(=O)=O)C=C1","-","-","AUTO_2146","-","A140250","-","-","-","-","-","336.99","Celsius","-","-","-","-","336.99","Celsius","-","-","","-",""
"CCCCCCCC[N+]1=CSC=C1.FC(F)(F)S(=O)(=O)[N-]S(=O)(=O)C(F)(F)F","-","-","AUTO_2147","-","A140250","-","-","-","-","-","337.0","Celsius","-","-","-","-","337.0","Celsius","-","-","","-",""
"[N-]=C=S.CCCCCC[N+]1=C2CCCCCN2CCC1","-","-","AUTO_2149","-","A140250","-","-","-","-","-","337.0","Celsius","-","-","-","-","337.0","Celsius","-","-","","-",""
"F[B-](F)(F)F.CN1C=C[N+](CC2=CC=CC3=CC=CC=C23)=C1","-","-","AUTO_2156","-","A140250","-","-","","-","-","338.0","Celsius","-","-","-","-","338.0","Celsius","-","-","","-",""
"F[B-](F)(F)F.CCCC[P+](CCCC)(CCCC)CCCC","-","-","AUTO_2158","-","A139568","25241963","-","-","-","-","338.84","Celsius","-","-","-","-","338.84","Celsius","-","-","","-",""
"F[B-](F)(F)F.CCCC[P+](CCCC)(CCCC)CCC(F)(F)C(F)(F)C(F)(F)C(F)(F)C(F)(F)C(F)(F)C(F)(F)C(F)(F)C(F)(F)C(F)(F)F","-","-","AUTO_2160","-","A140250","-","-","-","-","-","339.0","Celsius","-","-","-","-","339.0","Celsius","-","-","","-",""
"CCCCCC[N+]1=CSC=C1.FC(F)(F)S(=O)(=O)[N-]S(=O)(=O)C(F)(F)F","-","-","AUTO_2162","-","A140250","-","-","-","-","-","339.0","Celsius","-","-","-","-","339.0","Celsius","-","-","","-",""
"CCCCCC[N+]1=CC(C)=CC(C)=C1.FC(F)(F)S(=O)(=O)[N-]S(=O)(=O)C(F)(F)F","-","-","AUTO_2163","-","A140250","-","-","-","-","-","339.85","Celsius","-","-","-","-","339.85","Celsius","-","-","","-",""
"F[B-](F)(F)F.CCCCN1C=C[N+](C)=N1","-","-","AUTO_2164","-","A140250","-","-","","-","-","340.0","Celsius","-","-","-","-","340.0","Celsius","-","-","","-",""
"FC(F)(F)S(=O)(=O)[N-]S(=O)(=O)C(F)(F)F.CCCC[N+]1=CN(C=C1)[C@@H](C(C)C)C(=O)NCC2=CC=CC=C2","-","-","AUTO_2165","-","A140250","-","-","-","-","-","340.0","Celsius","-","-","-","-","340.0","Celsius","-","-","","-",""
"CCOCCOCC[N+]1(C)CCOCC1.FC(F)(F)S(=O)(=O)[N-]S(=O)(=O)C(F)(F)F","-","-","AUTO_2166","-","A139591","31540061","-","-","-","-","340.0","Celsius","-","-","-","-","340.0","Celsius","-","-","","-",""
"[O-]S(=O)(=O)C(F)(F)F.CCCC[P+](CCCC)(CCCC)CCC(F)(F)C(F)(F)C(F)(F)C(F)(F)C(F)(F)C(F)(F)F","-","-","AUTO_2167","-","A140250","-","-","-","-","-","340.0","Celsius","-","-","-","-","340.0","Celsius","-","-","","-",""
"CN1C=C[N+](CC(F)(F)F)=C1.CC1=CC=C(C=C1)S([O-])(=O)=O","-","-","AUTO_2170","-","A140250","-","-","-","-","-","340.0","Celsius","-","-","-","-","340.0","Celsius","-","-","","-",""
"FCCC[N+]1=CC=CN=C1.FC(F)(F)S(=O)(=O)[N-]S(=O)(=O)C(F)(F)F","-","-","AUTO_2172","-","A140250","-","-","-","-","-","341.0","Celsius","-","-","-","-","341.0","Celsius","-","-","","-",""
"F[P-](F)(F)(F)(F)F.CCCCN1C=C[N+](CCCC)=N1","-","-","AUTO_2173","-","A140250","-","-","","-","-","341.0","Celsius","-","-","-","-","341.0","Celsius","-","-","","-",""
"CC1=CC=C(C=C1)S([O-])(=O)=O.CCCCCCCCN1C=C[N+](CCCCCCCC)=C1","-","-","AUTO_2175","-","A140250","-","-","-","-","-","341.0","Celsius","-","-","-","-","341.0","Celsius","-","-","","-",""
"CCCC[N+]1=CSC=C1.FC(F)(F)S(=O)(=O)[N-]S(=O)(=O)C(F)(F)F","-","-","AUTO_2176","-","A139591","31540061","-","-","-","-","341.0","Celsius","-","-","-","-","341.0","Celsius","-","-","","-",""
"OS([O-])(=O)=O.CN1C=C[N+](CCCCS(O)(=O)=O)=C1","-","-","AUTO_2177","-","A140250","-","-","-","-","-","341.79","Celsius","-","-","-","-","341.79","Celsius","-","-","","-",""
"FC(F)(F)S(=O)(=O)[N-]S(=O)(=O)C(F)(F)F.CCCC[N+](CCCC)(CCCC)CC(=O)OCC","-","-","AUTO_2178","-","A140250","-","-","-","-","-","342.0","Celsius","-","-","-","-","342.0","Celsius","-","-","","-",""
"[I-].FC(F)(F)C(F)(F)C(F)(F)C(F)(F)C(F)(F)C(F)(F)C(F)(F)C(F)(F)C(F)(F)C(F)(F)CC[N+]1=CC=CN=C1","-","-","AUTO_2179","-","A140250","-","-","-","-","-","342.0","Celsius","-","-","-","-","342.0","Celsius","-","-","","-",""
"CC1=CC=C(C=C1)S([O-])(=O)=O.CCCCCCN1C=C[N+](CCCCCC)=C1","-","-","AUTO_2180","-","A140250","-","-","-","-","-","342.0","Celsius","-","-","-","-","342.0","Celsius","-","-","","-",""
"[Br-].CCCC[P+](CCCC)(CCCC)CCCCCOC1=CC=C(C=C1)C(C)=NO","-","-","AUTO_2182","-","A140250","-","-","-","-","-","343.0","Celsius","-","-","-","-","343.0","Celsius","-","-","","-",""
"[Br-].CCCCCCCCCC[N+]1=C2CCCCCN2CCC1","-","-","AUTO_2184","-","A140250","-","-","-","-","-","343.0","Celsius","-","-","-","-","343.0","Celsius","-","-","","-",""
"CCN1C=C[N+](CC)=C1.CC1=CC=C(C=C1)S([O-])(=O)=O","-","-","AUTO_2187","-","A140250","-","-","-","-","-","344.0","Celsius","-","-","-","-","344.0","Celsius","-","-","","-",""
"FC(F)(F)S(=O)(=O)[N-]S(=O)(=O)C(F)(F)F.COCCOCCN1C=C[N+](CCOCCOC)=C1","-","-","AUTO_2188","-","A139579","26885778","-","-","-","-","344.0","Celsius","-","-","-","-","344.0","Celsius","-","-","","-",""
"CN(C)C1=NC(C#N)=C([N-]1)C#N.CCCC[P+](CCCC)(CCCC)CCCC","-","-","AUTO_2189","-","A139514","16186910","-","-","-","-","344.0","Celsius","-","-","-","-","344.0","Celsius","-","-","","-",""
"F[B-](F)(F)F.CCCCN1C=C[N+](CCCC)=N1","-","-","AUTO_2194","-","A140250","-","-","","-","-","345.0","Celsius","-","-","-","-","345.0","Celsius","-","-","","-",""
"FC(F)(F)S(=O)(=O)[N-]S(=O)(=O)C(F)(F)F.FC(F)(F)C(F)(F)C(F)(F)C(F)(F)CC[P+](CCC(F)(F)C(F)(F)C(F)(F)C(F)(F)C(F)(F)C(F)(F)F)(CCC(F)(F)C(F)(F)C(F)(F)C(F)(F)C(F)(F)C(F)(F)F)CCC(F)(F)C(F)(F)C(F)(F)C(F)(F)C(F)(F)C(F)(F)F","-","-","AUTO_2195","-","A139591","31540061","-","-","-","-","345.0","Celsius","-","-","-","-","345.0","Celsius","-","-","","-",""
"CCN1C=C[N+](C)=C1.OP(O)(=O)OP(O)([O-])=O","-","-","AUTO_2199","-","A139520","17047790","-","-","-","-","346.0","Celsius","-","-","-","-","346.0","Celsius","-","-","","-",""
"CC1=CC=C(C=C1)S([O-])(=O)=O.CCCCCCCCCCN1C=C[N+](CCCCCCCCCC)=C1","-","-","AUTO_2202","-","A140250","-","-","-","-","-","347.0","Celsius","-","-","-","-","347.0","Celsius","-","-","","-",""
"CC1=CC=C(C=C1)S([O-])(=O)=O.CCCCN1C=C[N+](CCCC)=C1","-","-","AUTO_2204","-","A140250","-","-","-","-","-","348.0","Celsius","-","-","-","-","348.0","Celsius","-","-","","-",""