"SMILES","CASRN","EXTERNALID","N","NAME","ARTICLEID","PUBMEDID","PAGE","TABLE","Melting Point","UNIT {Melting Point}","Decomposition","UNIT {Decomposition}","Glass-transition temperature (Tg)","UNIT {Glass-transition temperature (Tg)}","Melting Point {measured, converted}","UNIT {Melting Point}","Decomposition {measured, converted}","UNIT {Decomposition}","Glass-transition temperature (Tg) {measured, converted}","UNIT {Glass-transition temperature (Tg)}","weight loss","UNIT {weight loss}","Solvent"
"CCCCCCCCCCCCOC(=O)C[N+](C)(C)C.F[B-](F)(F)F","-","-","AUTO_801","-","A138128","-","-","-","362.2","K","-","-","-","-","89.2","Celsius","-","-","-","-","","-",""
"CCCCCCCCCCCCCCCCOC(=O)C[N+](C)(C)C.F[B-](F)(F)F","-","-","AUTO_803","-","A138128","-","-","-","377.2","K","-","-","-","-","104.2","Celsius","-","-","-","-","","-",""
"C[N+](C)(C)CCCC#N.F[B-](F)(F)F","-","-","AUTO_805","-","A138128","-","-","-","334.1","K","-","-","-","-","61.1","Celsius","-","-","-","-","","-",""
"CC(C)(C)[NH3+].F[B-](F)(F)F","-","-","AUTO_807","-","A138128","-","-","-","391.5","K","-","-","-","-","118.5","Celsius","-","-","-","-","","-",""
"C[NH+]1CCCC1.F[B-](F)(F)F","-","-","AUTO_808","-","A138128","-","-","-","240.2","K","-","-","-","-","-32.8","Celsius","-","-","-","-","","-",""
"C[NH+]1CCCCC1.F[B-](F)(F)F","-","-","AUTO_812","-","A138128","-","-","-","298.2","K","-","-","-","-","25.2","Celsius","-","-","-","-","","-",""
"C[NH+]1CCOCC1.F[B-](F)(F)F","-","-","AUTO_815","-","A138128","-","-","-","302.2","K","-","-","-","-","29.2","Celsius","-","-","-","-","","-",""
"CC[NH+]1CCOCC1.F[B-](F)(F)F","-","-","AUTO_816","-","A138128","-","-","-","294.2","K","-","-","-","-","21.2","Celsius","-","-","-","-","","-",""
"CCCCCCCCCCCC[P+](CCCC)(CCCC)CCCC.F[B-](F)(F)F","-","-","AUTO_819","-","A138128","-","-","-","295.6","K","-","-","-","-","22.6","Celsius","-","-","-","-","","-",""
"CCC[N+]1(C)CCCC1.F[B-](F)(F)C(F)(F)C(F)(F)C(F)(F)C(F)(F)F","-","-","AUTO_829","-","A138128","-","-","-","350.2","K","-","-","-","-","77.2","Celsius","-","-","-","-","","-",""
"COCC[N+]1(C)CCCC1.F[B-](F)(F)C(F)(F)C(F)(F)C(F)(F)C(F)(F)F","-","-","AUTO_831","-","A138128","-","-","-","260.2","K","-","-","-","-","-12.8","Celsius","-","-","-","-","","-",""
"CCC[N+]1(C)CCCC1.F[B-](F)(F)C(F)(F)C(F)(F)C(F)(F)F","-","-","AUTO_854","-","A138128","-","-","-","352.2","K","-","-","-","-","79.2","Celsius","-","-","-","-","","-",""
"COCC[N+]1(C)CCCC1.F[B-](F)(F)C(F)(F)C(F)(F)C(F)(F)F","-","-","AUTO_856","-","A138128","-","-","-","279.2","K","-","-","-","-","6.2","Celsius","-","-","-","-","","-",""
"CCN1C=C[N+](C)=C1.F[B-](F)(F)C(F)(F)C(F)(F)OC(F)(F)F","-","-","AUTO_863","-","A138128","-","-","-","243.2","K","-","-","-","-","-29.8","Celsius","-","-","-","-","","-",""
"CCCC[N+](C)(CC)CC.F[B-](F)(F)C(F)(F)C(F)(F)OC(F)(F)F","-","-","AUTO_864","-","A138128","-","-","-","289.2","K","-","-","-","-","16.2","Celsius","-","-","-","-","","-",""
"CCC[N+]1(C)CCCC1.F[B-](F)(F)C(F)(F)C(F)(F)OC(F)(F)F","-","-","AUTO_865","-","A138128","-","-","-","298.2","K","-","-","-","-","25.2","Celsius","-","-","-","-","","-",""
"CCN1C=C[N+](C)=C1.F[B-]1(F)OC(=O)C(=O)O1","-","-","AUTO_902","-","A138128","-","-","-","291.2","K","-","-","-","-","18.2","Celsius","-","-","-","-","","-",""
"CC[N+](CC)(CC)CC.F[B-]1(F)OC(=O)C(=O)O1","-","-","AUTO_903","-","A138128","-","-","-","306.2","K","-","-","-","-","33.2","Celsius","-","-","-","-","","-",""
"CCN1C=C[N+](C)=C1.F[B-](F)(C#N)C#N","-","-","AUTO_904","-","A138128","-","-","-","245.6","K","-","-","-","-","-27.4","Celsius","-","-","-","-","","-",""
"CCN1C=C[N+](C)=C1.F[B-](F)(C#N)C(F)(F)C(F)(F)C(F)(F)C(F)(F)F","-","-","AUTO_905","-","A138128","-","-","-","237.2","K","-","-","-","-","-35.8","Celsius","-","-","-","-","","-",""
"CCN1C=C[N+](C)=C1.F[B-](F)(C#N)C(F)(F)C(F)(F)C(F)(F)F","-","-","AUTO_906","-","A138128","-","-","-","220.2","K","-","-","-","-","-52.8","Celsius","-","-","-","-","","-",""
"CCN1C=C[N+](C)=C1.F[B-](F)(C#N)C(F)(F)C(F)(F)F","-","-","AUTO_907","-","A138128","-","-","-","216.2","K","-","-","-","-","-56.8","Celsius","-","-","-","-","","-",""
"CCN1C=C[N+](C)=C1.F[B-](F)(C#N)C(F)(F)F","-","-","AUTO_908","-","A138128","-","-","-","239.2","K","-","-","-","-","-33.8","Celsius","-","-","-","-","","-",""
"CCCCN1C=C[N+](C)=C1.CCCC[C@H](CC)COC(=O)C[C@@H](C(=O)OC[C@@H](CC)CCCC)S([O-])(=O)=O","-","-","AUTO_909","-","A138128","-","-","-","254.2","K","-","-","-","-","-18.8","Celsius","-","-","-","-","","-",""
"CCN1C=C[N+](C)=C1.FC(F)(F)[B-](C#N)(C#N)C#N","-","-","AUTO_910","-","A138128","-","-","-","266.2","K","-","-","-","-","-6.8","Celsius","-","-","-","-","","-",""
"CCCCCCCC[N+]1=CC=C(C)C=C1.F[As-](F)(F)(F)(F)F","-","-","AUTO_912","-","A138128","-","-","-","281.2","K","-","-","-","-","8.2","Celsius","-","-","-","-","","-",""
"C[N+](C)(C)C.C[C@H](N)C([O-])=O","-","-","AUTO_918","-","A138128","-","-","-","315.2","K","-","-","-","-","42.2","Celsius","-","-","-","-","","-",""
"CCN1C=C[N+](C)=C1.FC(F)(F)C(O[Al-](OC(C(F)(F)F)C(F)(F)F)(OC(C(F)(F)F)C(F)(F)F)OC(C(F)(F)F)C(F)(F)F)C(F)(F)F","-","-","AUTO_919","-","A138128","-","-","-","304.2","K","-","-","-","-","31.2","Celsius","-","-","-","-","","-",""
"CCN1C=C[N+](C)=C1C.FC(F)(F)C(O[Al-](OC(C(F)(F)F)C(F)(F)F)(OC(C(F)(F)F)C(F)(F)F)OC(C(F)(F)F)C(F)(F)F)C(F)(F)F","-","-","AUTO_920","-","A138128","-","-","-","312.2","K","-","-","-","-","39.2","Celsius","-","-","-","-","","-",""
"CCCCN1C=C[N+](C)=C1.FC(F)(F)C(O[Al-](OC(C(F)(F)F)C(F)(F)F)(OC(C(F)(F)F)C(F)(F)F)OC(C(F)(F)F)C(F)(F)F)C(F)(F)F","-","-","AUTO_921","-","A138128","-","-","-","313.2","K","-","-","-","-","40.2","Celsius","-","-","-","-","","-",""
"CCCCN1C=C[N+](C)=C1C.FC(F)(F)C(O[Al-](OC(C(F)(F)F)C(F)(F)F)(OC(C(F)(F)F)C(F)(F)F)OC(C(F)(F)F)C(F)(F)F)C(F)(F)F","-","-","AUTO_922","-","A138128","-","-","-","273.2","K","-","-","-","-","0.2","Celsius","-","-","-","-","","-",""
"CCCCCC[N+]=1C=CN(C)C1.FC(F)(F)C(O[Al-](OC(C(F)(F)F)C(F)(F)F)(OC(C(F)(F)F)C(F)(F)F)OC(C(F)(F)F)C(F)(F)F)C(F)(F)F","-","-","AUTO_923","-","A138128","-","-","-","278.2","K","-","-","-","-","5.2","Celsius","-","-","-","-","","-",""
"C[N+]=1C=CN(CC=C)C1.FC(F)(F)C(O[Al-](OC(C(F)(F)F)C(F)(F)F)(OC(C(F)(F)F)C(F)(F)F)OC(C(F)(F)F)C(F)(F)F)C(F)(F)F","-","-","AUTO_924","-","A138128","-","-","-","285.2","K","-","-","-","-","12.2","Celsius","-","-","-","-","","-",""
"CCCC[N+]1=CC=CC=C1.FC(F)(F)C(O[Al-](OC(C(F)(F)F)C(F)(F)F)(OC(C(F)(F)F)C(F)(F)F)OC(C(F)(F)F)C(F)(F)F)C(F)(F)F","-","-","AUTO_925","-","A138128","-","-","-","309.2","K","-","-","-","-","36.2","Celsius","-","-","-","-","","-",""
"CCCC[N+]1(C)CCCC1.FC(F)(F)C(O[Al-](OC(C(F)(F)F)C(F)(F)F)(OC(C(F)(F)F)C(F)(F)F)OC(C(F)(F)F)C(F)(F)F)C(F)(F)F","-","-","AUTO_926","-","A138128","-","-","-","323.2","K","-","-","-","-","50.2","Celsius","-","-","-","-","","-",""
"CCC[N+]1(C)CCCCC1.FC(F)(F)C(O[Al-](OC(C(F)(F)F)C(F)(F)F)(OC(C(F)(F)F)C(F)(F)F)OC(C(F)(F)F)C(F)(F)F)C(F)(F)F","-","-","AUTO_927","-","A138128","-","-","-","342.2","K","-","-","-","-","69.2","Celsius","-","-","-","-","","-",""
"CCCC[N+]1(C)CCOCC1.FC(F)(F)C(O[Al-](OC(C(F)(F)F)C(F)(F)F)(OC(C(F)(F)F)C(F)(F)F)OC(C(F)(F)F)C(F)(F)F)C(F)(F)F","-","-","AUTO_928","-","A138128","-","-","-","304.2","K","-","-","-","-","31.2","Celsius","-","-","-","-","","-",""
"CCCCCCCCCC(=O)OCC[N+](C)(C)COC1CCCCCCCCCCC1.CC1=CC(=O)[N-]S(=O)(=O)O1","-","-","AUTO_929","-","A138128","-","-","-","360.7","K","-","-","-","-","87.7","Celsius","-","-","-","-","","-",""
"CCCCCCCCCCCOC[N+](C)(C)CCO.CC1=CC(=O)[N-]S(=O)(=O)O1","-","-","AUTO_930","-","A138128","-","-","-","307.4","K","-","-","-","-","34.4","Celsius","-","-","-","-","","-",""
"CC(C)CN1C=C[N+](CC(C)C)=C1.CC([O-])=O","-","-","AUTO_933","-","A138128","-","-","-","333.2","K","-","-","-","-","60.2","Celsius","-","-","-","-","","-",""
"CCCC[N+](CC)(CC)CC.CC([O-])=O","-","-","AUTO_936","-","A138128","-","-","-","300.9","K","-","-","-","-","27.9","Celsius","-","-","-","-","","-",""
"[NH3+]CCO.CC([O-])=O","-","-","AUTO_938","-","A138128","-","-","-","202.2","K","-","-","-","-","-70.8","Celsius","-","-","-","-","","-",""
"[NH3+]CCOCCO.CC([O-])=O","-","-","AUTO_940","-","A138128","-","-","-","212.4","K","-","-","-","-","-60.6","Celsius","-","-","-","-","","-",""
"C[N+](C)(C)CCO.CC([O-])=O","-","-","AUTO_941","-","A138128","-","-","-","345.2","K","-","-","-","-","72.2","Celsius","-","-","-","-","","-",""
"CC[N+](C)(C)CCOC.CC([O-])=O","-","-","AUTO_942","-","A138128","-","-","-","309.3","K","-","-","-","-","36.3","Celsius","-","-","-","-","","-",""
"COCC[NH2+]CCOC.CC([O-])=O","-","-","AUTO_946","-","A138128","-","-","-","279.1","K","-","-","-","-","6.1","Celsius","-","-","-","-","","-",""
"CC[NH3+].CCCCCCCC([O-])=O","-","-","AUTO_948","-","A138128","-","-","-","269.2","K","-","-","-","-","-3.8","Celsius","-","-","-","-","","-",""
"CCCC[NH3+].CCCCCCCC([O-])=O","-","-","AUTO_949","-","A138128","-","-","-","258.2","K","-","-","-","-","-14.8","Celsius","-","-","-","-","","-",""
"[NH3+]CCO.CCCCCCCC([O-])=O","-","-","AUTO_950","-","A138128","-","-","-","306.2","K","-","-","-","-","33.2","Celsius","-","-","-","-","","-",""
"C1CC[NH2+]C1.CCCCCCCC([O-])=O","-","-","AUTO_951","-","A138128","-","-","-","233.2","K","-","-","-","-","-39.8","Celsius","-","-","-","-","","-",""
"[NH3+]CCO.CCCCCCCCCCCCCCCCCC([O-])=O","-","-","AUTO_952","-","A138128","-","-","-","348.7","K","-","-","-","-","75.7","Celsius","-","-","-","-","","-",""
"OCC[NH2+]CCO.CCCCCCCCCCCCCCCCCC([O-])=O","-","-","AUTO_953","-","A138128","-","-","-","331.7","K","-","-","-","-","58.7","Celsius","-","-","-","-","","-",""
"C1=CNC=[NH+]1.OS(=O)(=O)C(F)(F)F","29727-06-8","-","AUTO_3","Imidazole trifluoromethanesulfonate salt","A132204","-","-","-","-","-","375.0","Celsius","-","-","-","-","375.0","Celsius","-","-","","-",""
"CN1C=C[NH+]=C1.OS(=O)(=O)[O-]","681281-87-8","-","AUTO_9","1-Methylimidazolium hydrogen sulfate","A132204","-","-","-","-","-","345.0","Celsius","-","-","-","-","345.0","Celsius","-","-","","-",""
"CN1C=C[NH+]=C1.CS(=O)(=O)[O-]","-","-","AUTO_11","1-Methylimidazolium mesylate","A130243","-","-","-","-","-","258.0","Celsius","-","-","-","-","258.0","Celsius","-","-","= 10.0","%",""
"CN1C=C[NH+]=C1.C(F)(F)(F)S(=O)(=O)[O-]","-","-","AUTO_13","1-methylimidazolium triflate","A130243","-","-","-","-","-","343.0","Celsius","-","-","-","-","343.0","Celsius","-","-","= 10.0","%",""
"CN1C=C[NH+]=C1.C(F)(F)(F)S(=O)(=O)[N-]S(=O)(=O)C(F)(F)F","-","-","AUTO_19","1-Methylimidazolium bis(trifluoromethanesulfonyl)imide","A130243","-","-","-","-","-","370.0","Celsius","-","-","-","-","370.0","Celsius","-","-","= 10.0","%",""
"CN1C=C[NH+]=C1.[O-]C(=O)C(F)(F)F","-","-","AUTO_24","1-Methylimidazolium trifluoroacetate","A130243","-","-","","-","-","172.0","Celsius","-","-","-","-","172.0","Celsius","-","-","= 10.0","%",""
"CCCN1C=C[NH+]=C1.OS(=O)(=O)[O-]","-","-","AUTO_42","PrHIm + HSO4","A132204","-","-","-","-","-","335.0","Celsius","-","-","-","-","335.0","Celsius","-","-","","-",""
"CCCCN1C=C[NH+]=C1.CS(=O)(=O)[O-]","-","-","AUTO_46","N-Butylimidazolium mesylate","A130243","-","-","-","-","-","251.0","Celsius","-","-","-","-","251.0","Celsius","-","-","= 5.0","%",""
"CCCCN1C=C[NH+]=C1.[O-]S(=O)(=O)C(F)(F)F","-","-","AUTO_48","N-Butylimidazolium triflate","A130243","-","-","-","-","-","359.0","Celsius","-","-","-","-","359.0","Celsius","-","-","= 5.0","%",""
"CCCC[N+]1=CNC=C1.C(=O)(C(F)(F)F)[O-]","-","-","AUTO_51","N-Butylimidazolium trifluoroacetate","A130243","-","-","-","-","-","173.0","Celsius","-","-","-","-","173.0","Celsius","-","-","= 10.0","%",""
"CCCCN1C=C[NH+]=C1.OP(=O)(O)[O-]","-","-","AUTO_54","N-Butylimidazolium dihydrogen phosphate","A130243","-","-","-","-","-","189.0","Celsius","-","-","-","-","189.0","Celsius","-","-","= 10.0","%",""
"CCCCN1C=C[NH+]=C1.C1=CC=C(C(=C1)C(=O)O)[O-]","-","-","AUTO_55","N-Butylimidazolium salicylate","A130243","-","-","-","-","-","163.0","Celsius","-","-","-","-","163.0","Celsius","-","-","","-",""
"CC1=CC(C[N+]2(C)CCCC2)=CC=C1.FC(F)(F)S(=O)(=O)[N-]S(=O)(=O)C(F)(F)F","-","-","AUTO_6","-","A132545","-","-","","-","-","350.0","Celsius","-","-","-","-","350.0","Celsius","-","-","","-",""
"C[N+]1(CC2=CC=CC(F)=C2)CCCC1.FC(F)(F)S(=O)(=O)[N-]S(=O)(=O)C(F)(F)F","-","-","AUTO_7","-","A132545","-","-","","-","-","390.0","Celsius","-","-","-","-","390.0","Celsius","-","-","","-",""
"FC(F)(F)S(=O)(=O)[N-]S(=O)(=O)C(F)(F)F.C[N+]1(CC2=CC=CC=C2N(=O)=O)CCCC1","-","-","AUTO_8","-","A132545","-","-","","-","-","310.0","Celsius","-","-","-","-","310.0","Celsius","-","-","","-",""
"[NH4+].NC([S-])=S","-","-","AUTO_12","-","A132545","-","-","-","-","-","50.0","Celsius","-","-","-","-","50.0","Celsius","-","-","","-",""
"FC(F)(F)S(=O)(=O)[N-]S(=O)(=O)C(F)(F)F.C[N+]1(CC2=CC=C(C=C2)N(=O)=O)CCCC1","-","-","AUTO_13","-","A132545","-","-","","-","-","320.0","Celsius","-","-","-","-","320.0","Celsius","-","-","","-",""
"C[N+]1(CC2=CC=CC=C2F)CCCC1.FC(F)(F)S(=O)(=O)[N-]S(=O)(=O)C(F)(F)F","-","-","AUTO_14","-","A132545","-","-","","-","-","380.0","Celsius","-","-","-","-","380.0","Celsius","-","-","","-",""
"CCN1C=C[N+](C)=C1.O=N[C-](C#N)N(=O)=O","-","-","AUTO_15","-","A132545","-","-","-","-","-","52.0","Celsius","-","-","-","-","52.0","Celsius","-","-","","-",""
"C[N+]1(CCC2=CC=CC=C2)CCCC1.FC(F)(F)S(=O)(=O)[N-]S(=O)(=O)C(F)(F)F","-","-","AUTO_16","-","A132545","-","-","","-","-","400.0","Celsius","-","-","-","-","400.0","Celsius","-","-","","-",""
"[NH4+].NC([O-])=O","-","-","AUTO_18","-","A132545","-","-","-","-","-","60.0","Celsius","-","-","-","-","60.0","Celsius","-","-","","-",""
"F[P-](F)(F)(F)(F)F.CC1=CC(C[N+]2(C)CCCC2)=CC=C1","-","-","AUTO_19","-","A132545","-","-","","-","-","330.0","Celsius","-","-","-","-","330.0","Celsius","-","-","","-",""
"O=N[C-](C#N)N(=O)=O.CCCCN1C=C[N+](C)=C1","-","-","AUTO_20","-","A132545","-","-","-","-","-","65.0","Celsius","-","-","-","-","65.0","Celsius","-","-","","-",""
"FC(F)(F)S(=O)(=O)[N-]S(=O)(=O)C(F)(F)F.C[N+]1(CC2=CC=CC(=C2)N(=O)=O)CCCC1","-","-","AUTO_21","-","A132545","-","-","","-","-","340.0","Celsius","-","-","-","-","340.0","Celsius","-","-","","-",""
"C[N+](C)(C)C.O=N[C-](C#N)N(=O)=O","-","-","AUTO_23","-","A132545","-","-","-","-","-","70.0","Celsius","-","-","-","-","70.0","Celsius","-","-","","-",""
"CC(O)C([O-])=O.[C@@H](C)([NH3+])C(=O)OC","-","-","AUTO_26","-","A139513","16010324","-","","-","-","77.0","Celsius","-","-","-","-","77.0","Celsius","-","-","","-",""
"CC1=CC=CC=C1C[N+]2(C)CCCC2.FC(F)(F)S(=O)(=O)[N-]S(=O)(=O)C(F)(F)F","-","-","AUTO_27","-","A139508","15455143","-","","-","-","340.0","Celsius","-","-","-","-","340.0","Celsius","-","-","","-",""
"CC(O)C([O-])=O.[C@@H](C)([NH3+])C(=O)OCC","-","-","AUTO_30","-","A139513","16010324","-","","-","-","82.0","Celsius","-","-","-","-","82.0","Celsius","-","-","","-",""
"CC[NH+](CC)CC.N#CC1=NN=N[N-]1","-","-","AUTO_34","-","A139572","25504790","-","","-","-","85.0","Celsius","-","-","-","-","85.0","Celsius","-","-","","-",""
"F[P-](F)(F)(F)(F)F.C[N+]1(CC2=CC=CC(F)=C2)CCCC1","-","-","AUTO_43","-","A132545","-","-","","-","-","320.0","Celsius","-","-","-","-","320.0","Celsius","-","-","","-",""
"NC([NH3+])=O.OP(O)([O-])=O","-","-","AUTO_50","-","A132545","-","-","","-","-","100.0","Celsius","-","-","-","-","100.0","Celsius","-","-","","-",""
"CC([NH2+]C(C)C)C.CC(C)(C)C(=O)[CH-]C(=O)C(F)(F)C(F)(F)C(F)(F)F","-","-","AUTO_56","-","A139601","33908684","-","","-","-","101.0","Celsius","-","-","-","-","101.0","Celsius","-","-","","-",""
"[NH3+]CCO.CCCC([O-])=O","-","-","AUTO_61","-","A132545","-","-","","-","-","105.0","Celsius","-","-","-","-","105.0","Celsius","-","-","","-",""
"N#C[N-]C#N.NN1C=N[N+](CC#N)=C1","-","-","AUTO_62","-","A132545","-","-","-","-","-","105.0","Celsius","-","-","-","-","105.0","Celsius","-","-","","-",""
"CCC[NH2+]CCO.COC1=CC(C=CC([O-])=O)=CC=C1O","-","-","AUTO_66","-","A132545","-","-","","-","-","106.34","Celsius","-","-","-","-","106.34","Celsius","-","-","","-",""
"C[NH2+]CCO.COC1=CC(C=CC([O-])=O)=CC=C1O","-","-","AUTO_67","-","A132545","-","-","","-","-","106.8","Celsius","-","-","-","-","106.8","Celsius","-","-","","-",""
"N[C@@H](CCCNC(N)=N)C([O-])=O.C[N+](C)(C)CCO[C@@H]1O[C@H](CO)[C@@H](O)[C@H](O)[C@H]1O","-","-","AUTO_68","-","A132545","-","-","-","-","-","107.0","Celsius","-","-","-","-","107.0","Celsius","-","-","","-",""
"[BH4-].CCCC[N+]1=CN(CC=C)C=C1","-","-","AUTO_75","-","A139575","26223830","-","-","-","-","110.3","Celsius","-","-","-","-","110.3","Celsius","-","-","","-",""
"CC([O-])=O.CC[N+](CC)(CC)CCOCCOCCOC","-","-","AUTO_79","-","A132545","-","-","-","-","-","112.0","Celsius","-","-","-","-","112.0","Celsius","-","-","","-",""
"[Cl-].CC(C)[C@H]1CC[C@H](C)C[C@@H]1OC[N+]2=CC=CC=C2","-","-","AUTO_80","-","A132545","-","-","-","-","-","112.3","Celsius","-","-","-","-","112.3","Celsius","-","-","","-",""
"[O-]C(=O)C1=CC=CC=C1.CC(O)C[NH+](CC(C)O)CC(C)O","-","-","AUTO_81","-","A132545","-","-","","-","-","113.0","Celsius","-","-","-","-","113.0","Celsius","-","-","","-",""
"CCCC[NH2+]CCO.COC1=CC(C=CC([O-])=O)=CC=C1O","-","-","AUTO_82","-","A132545","-","-","","-","-","113.86","Celsius","-","-","-","-","113.86","Celsius","-","-","","-",""
"CCC([O-])=O.CC(O)[NH2+]C1=CC=CC=C1","-","-","AUTO_85","-","A132545","-","-","","-","-","114.5","Celsius","-","-","-","-","114.5","Celsius","-","-","","-",""
"N#C[N-]C#N.CN1C=[N+](CC#N)C=N1","-","-","AUTO_87","-","A132545","-","-","-","-","-","115.0","Celsius","-","-","-","-","115.0","Celsius","-","-","","-",""
"[BH4-].CCCCCCCCN1C=C[N+](CCCCCCCC)=C1","-","-","AUTO_89","-","A139575","26223830","-","-","-","-","115.7","Celsius","-","-","-","-","115.7","Celsius","-","-","","-",""
"F[P-](F)(F)(F)(F)F.CC1=CC=C(C[N+]2(C)CCCC2)C=C1","-","-","AUTO_91","-","A132545","-","-","","-","-","320.0","Celsius","-","-","-","-","320.0","Celsius","-","-","","-",""
"C[NH+](C)CCCO.COC1=CC(C=CC([O-])=O)=CC=C1O","-","-","AUTO_92","-","A132545","-","-","","-","-","117.04","Celsius","-","-","-","-","117.04","Celsius","-","-","","-",""
"F[B-](F)(F)F.OC(=O)CC1=CC=C(C=C1)[N+]#N","-","-","AUTO_93","-","A139512","15998035","-","","-","-","118.0","Celsius","-","-","-","-","118.0","Celsius","-","-","","-",""
"CN1C=[N+](C)C(N=N#N)=N1.O=N(=O)C1=NC(=N[N-]1)N(=O)=O","-","-","AUTO_94","-","A139554","22026631","-","-","-","-","118.0","Celsius","-","-","-","-","118.0","Celsius","-","-","","-",""
"CC[NH+](CC)CCCO.COC1=CC(C=CC([O-])=O)=CC=C1O","-","-","AUTO_95","-","A132545","-","-","","-","-","118.06","Celsius","-","-","-","-","118.06","Celsius","-","-","","-",""
"[BH4-].CCCCCCCC[N+]1=CN(CC=C)C=C1","-","-","AUTO_96","-","A139575","26223830","-","-","-","-","118.2","Celsius","-","-","-","-","118.2","Celsius","-","-","","-",""
"N#C[N-]C#N.CN1C=[N+](CC#C)C=N1","-","-","AUTO_99","-","A132545","-","-","-","-","-","119.0","Celsius","-","-","-","-","119.0","Celsius","-","-","","-",""
"C[NH2+]C.[O-]C(=O)COC1=C(Cl)C=C(Cl)C=C1","-","-","AUTO_101","-","A139522","17245788","-","","-","-","120.0","Celsius","-","-","-","-","120.0","Celsius","-","-","","-",""
"[I-].CCCCCCCCOC1=CC(=CC(OCCCCCCCC)=C1OCCCCCCCC)C(=O)NC2=CC=C(C=C2)[N+](C)(C)C","-","-","AUTO_103","-","A139522","17245788","-","-","-","-","120.0","Celsius","-","-","-","-","120.0","Celsius","-","-","","-",""
"[I-].CCCCCCCCCCCCCCCCOC1=CC(=CC(OCCCCCCCCCCCCCCCC)=C1OCCCCCCCCCCCCCCCC)C(=O)NC2=CC=C(C=C2)[N+](C)(C)C","-","-","AUTO_104","-","A139560","24048284","-","-","-","-","120.0","Celsius","-","-","-","-","120.0","Celsius","-","-","","-",""
"F[B-](F)(F)F.CCCCCCN1C=C(CO[C@@H]2OC[C@@H](O)[C@H](O)[C@H]2O)[N+](C)=N1","-","-","AUTO_105","-","A132545","-","-","-","-","-","120.0","Celsius","-","-","-","-","120.0","Celsius","-","-","","-",""
"CCCC([O-])=O.CC(O)[NH2+]C1=CC=CC=C1","-","-","AUTO_107","-","A132545","-","-","","-","-","120.7","Celsius","-","-","-","-","120.7","Celsius","-","-","","-",""
"[BH4-].C=CCN1C=C[N+](CC=C)=C1","-","-","AUTO_108","-","A139575","26223830","-","-","-","-","120.8","Celsius","-","-","-","-","120.8","Celsius","-","-","","-",""
"COC([O-])=O.C[N+]1(C)CCCC1","-","-","AUTO_110","-","A139575","26223830","-","-","-","-","121.0","Celsius","-","-","-","-","121.0","Celsius","-","-","","-",""