"SMILES","CASRN","EXTERNALID","N","NAME","ARTICLEID","PUBMEDID","PAGE","TABLE","Melting Point","UNIT {Melting Point}","Decomposition","UNIT {Decomposition}","Glass-transition temperature (Tg)","UNIT {Glass-transition temperature (Tg)}","Melting Point {measured, converted}","UNIT {Melting Point}","Decomposition {measured, converted}","UNIT {Decomposition}","Glass-transition temperature (Tg) {measured, converted}","UNIT {Glass-transition temperature (Tg)}","weight loss","UNIT {weight loss}","Solvent"
"CCCCCCCCCCCCCCCCCC[N+]=1C=CN(C1)C.C(F)(F)(F)S(=O)(=O)[N-]S(=O)(=O)C(F)(F)F","-","-","AUTO_166","C0081_A0048","A132065","-","-","-","45.0","Celsius","-","-","-","-","45.0","Celsius","-","-","-","-","","-",""
"CCCCCCCCCCCCCCCCCC[N+]=1C=CN(C1)C.FC(S(=O)(=O)[O-])(F)F","-","-","AUTO_167","C0081_A0084","A132065","-","-","-","66.0","Celsius","-","-","-","-","66.0","Celsius","-","-","-","-","","-",""
"CCCCCCCCCCCCCCCCCC[N+]=1C=CN(C1)C.F[P-](F)(F)(F)(F)F","-","-","AUTO_168","C0081_A0011","A132065","-","-","-","80.0","Celsius","-","-","-","-","80.0","Celsius","-","-","-","-","","-",""
"CCCCCCCCCCCCCCCCCCCC[N+]=1C=CN(C1)C.[Br-]","-","-","AUTO_169","C0130_A0004","A132065","-","-","-","60.0","Celsius","-","-","-","-","60.0","Celsius","-","-","-","-","","-",""
"COC[N+]=1C=CN(C1)C.[Cl-]","-","-","AUTO_170","C0495_A0033","A132065","-","-","-","17.0","Celsius","-","-","-","-","17.0","Celsius","-","-","-","-","","-",""
"COC[N+]=1C=CN(C1)C.FC(F)(F)[B-](F)(F)F","-","-","AUTO_171","C0495_A0008","A132065","-","-","-","17.0","Celsius","-","-","-","-","17.0","Celsius","-","-","-","-","","-",""
"COC[N+]=1C=CN(C1)C.FC(C(F)(F)F)(F)[B-](F)(F)F","-","-","AUTO_172","C0495_A0043","A132065","-","-","-","-21.0","Celsius","-","-","-","-","-21.0","Celsius","-","-","-","-","","-",""
"C[N+]=1C=CN(C1)C(C(F)F)(F)F.[I-]","-","-","AUTO_173","C0288_A0069","A132065","-","-","-","141.0","Celsius","-","-","-","-","141.0","Celsius","-","-","-","-","","-",""
"C[N+]=1C=CN(C1)C(C(F)F)(F)F.F[B-](F)(F)F","-","-","AUTO_174","C0288_A0020","A132065","-","-","-","64.0","Celsius","-","-","-","-","64.0","Celsius","-","-","-","-","","-",""
"C[N+]=1C=CN(C1)C(C(F)F)(F)F.C(F)(F)(F)S(=O)(=O)[N-]S(=O)(=O)C(F)(F)F","-","-","AUTO_175","C0288_A0048","A132065","-","-","-","42.0","Celsius","-","-","-","-","42.0","Celsius","-","-","-","-","","-",""
"CC[N+]=1C=CN(C1)C(C(F)F)(F)F.[I-]","-","-","AUTO_176","C1107_A0069","A132065","-","-","-","91.0","Celsius","-","-","-","-","91.0","Celsius","-","-","-","-","","-",""
"CC[N+]=1C=CN(C1)C(C(F)F)(F)F.F[B-](F)(F)F","-","-","AUTO_177","C1107_A0020","A132065","-","-","-","25.0","Celsius","-","-","-","-","25.0","Celsius","-","-","-","-","","-",""
"CC[N+]=1C=CN(C1)C(C(F)F)(F)F.C(F)(F)(F)S(=O)(=O)[N-]S(=O)(=O)C(F)(F)F","-","-","AUTO_178","C1107_A0048","A132065","-","-","-","16.0","Celsius","-","-","-","-","16.0","Celsius","-","-","-","-","","-",""
"CCC[N+]=1C=CN(C1)C(C(F)F)(F)F.[I-]","-","-","AUTO_179","C0431_A0069","A132065","-","-","-","78.0","Celsius","-","-","-","-","78.0","Celsius","-","-","-","-","","-",""
"CCCC[N+]=1C=CN(C1)C(C(F)F)(F)F.[I-]","-","-","AUTO_180","C0856_A0069","A132065","-","-","-","74.0","Celsius","-","-","-","-","74.0","Celsius","-","-","-","-","","-",""
"CCOC(=O)[C@H]([N+]=1C=CN(C1)C)C.C(F)(F)(F)S(=O)(=O)[N-]S(=O)(=O)C(F)(F)F","-","-","AUTO_181","C0399_A0048","A132065","-","-","-","45.0","Celsius","-","-","-","-","45.0","Celsius","-","-","-","-","","-",""
"CCOC(=O)[C@H]([N+]=1C=CN(C1)C)C.FC(S(=O)(=O)[O-])(F)F","-","-","AUTO_182","C0399_A0084","A132065","-","-","-","73.0","Celsius","-","-","-","-","73.0","Celsius","-","-","-","-","","-",""
"CCCCCCCCOCN1C=C[N+](=C1)COCCCCCCCC.F[B-](F)(F)F","-","-","AUTO_183","C0987_A0020","A132065","-","-","-","54.0","Celsius","-","-","-","-","54.0","Celsius","-","-","-","-","","-",""
"CCCCCCCCCOCN1C=C[N+](=C1)COCCCCCCCCC.F[B-](F)(F)F","-","-","AUTO_184","C0627_A0020","A132065","-","-","-","57.0","Celsius","-","-","-","-","57.0","Celsius","-","-","-","-","","-",""
"CCCCCCCCCCOCN1C=C[N+](=C1)COCCCCCCCCCC.F[B-](F)(F)F","-","-","AUTO_185","C0073_A0020","A132065","-","-","-","69.0","Celsius","-","-","-","-","69.0","Celsius","-","-","-","-","","-",""
"CCCCCCCCCCCOCN1C=C[N+](=C1)COCCCCCCCCCCC.F[B-](F)(F)F","-","-","AUTO_186","C1018_A0020","A132065","-","-","-","71.0","Celsius","-","-","-","-","71.0","Celsius","-","-","-","-","","-",""
"CCCCCCCCCCCCOCN1C=C[N+](=C1)COCCCCCCCCCCCC.F[B-](F)(F)F","-","-","AUTO_187","C0076_A0020","A132065","-","-","-","79.0","Celsius","-","-","-","-","79.0","Celsius","-","-","-","-","","-",""
"OCC[N+]=1C=CN(C1)C.[Cl-]","-","-","AUTO_188","C0852_A0033","A132065","-","-","-","61.0","Celsius","-","-","-","-","61.0","Celsius","-","-","-","-","","-",""
"OCC[N+]=1C=CN(C1)C.F[P-](F)(F)(F)(F)F","-","-","AUTO_189","C0852_A0011","A132065","-","-","-","23.0","Celsius","-","-","-","-","23.0","Celsius","-","-","-","-","","-",""
"COC(=O)C[N+]=1C=CN(C1)C.C(F)(F)(F)S(=O)(=O)[N-]S(=O)(=O)C(F)(F)F","-","-","AUTO_190","C0145_A0048","A132065","-","-","-","-43.0","Celsius","-","-","-","-","-43.0","Celsius","-","-","-","-","","-",""
"COC(=O)C[N+]=1C=CN(C1)C.F[P-](F)(F)(F)(F)F","-","-","AUTO_191","C0145_A0011","A132065","-","-","-","77.0","Celsius","-","-","-","-","77.0","Celsius","-","-","-","-","","-",""
"CCC([N+]=1C=CN(C1)C)C.FC(C(C(C(F)(F)F)(F)F)(F)F)(S(=O)(=O)[O-])F","-","-","AUTO_192","C0159_A0079","A132065","-","-","-","43.0","Celsius","-","-","-","-","43.0","Celsius","-","-","-","-","","-",""
"CC(CC[N+]=1C=CN(C1)C)C.FC(F)(F)C(F)(F)C(F)(F)C(F)(F)S(=O)(=O)[N-]S(=O)(=O)C(F)(F)C(F)(F)C(F)(F)C(F)(F)F","-","-","AUTO_193","C0584_A0028","A132065","-","-","-","40.0","Celsius","-","-","-","-","40.0","Celsius","-","-","-","-","","-",""
"C[N+]=1C=CN(C1)CCO[Si](C)(C)C.[I-]","-","-","AUTO_194","C0082_A0069","A132065","-","-","-","69.0","Celsius","-","-","-","-","69.0","Celsius","-","-","-","-","","-",""
"FCC[N+]=1C=CN(C1)CCO[Si](C)(C)C.[Br-]","-","-","AUTO_195","C0816_A0004","A132065","-","-","-","126.0","Celsius","-","-","-","-","126.0","Celsius","-","-","-","-","","-",""
"FC(CC[N+]=1C=CN(C1)CCO[Si](C)(C)C)(F)F.[I-]","-","-","AUTO_196","C1030_A0069","A132065","-","-","-","133.0","Celsius","-","-","-","-","133.0","Celsius","-","-","-","-","","-",""
"CCC(=O)C[N+]=1C=CN(C1)CCC(F)(F)F.C(F)(F)(F)S(=O)(=O)[N-]S(=O)(=O)C(F)(F)F","-","-","AUTO_197","C0591_A0048","A132065","-","-","-","128.0","Celsius","-","-","-","-","128.0","Celsius","-","-","-","-","","-",""
"N#CCN1C=C[N+](=C1)C.F[B-](F)(F)F","-","-","AUTO_198","C0448_A0020","A132065","-","-","-","35.0","Celsius","-","-","-","-","35.0","Celsius","-","-","-","-","","-",""
"N#CCN1C=C[N+](=C1)C.F[P-](F)(F)(F)(F)F","-","-","AUTO_199","C0448_A0011","A132065","-","-","-","78.0","Celsius","-","-","-","-","78.0","Celsius","-","-","-","-","","-",""
"N#CCCN1C=C[N+](=C1)C.[Cl-]","-","-","AUTO_200","C0197_A0033","A132065","-","-","-","50.0","Celsius","-","-","-","-","50.0","Celsius","-","-","-","-","","-",""
"N#CCCN1C=C[N+](=C1)C.F[B-](F)(F)F","-","-","AUTO_201","C0197_A0020","A132065","-","-","-","20.0","Celsius","-","-","-","-","20.0","Celsius","-","-","-","-","","-",""
"N#CCCN1C=C[N+](=C1)C.F[P-](F)(F)(F)(F)F","-","-","AUTO_202","C0197_A0011","A132065","-","-","-","35.0","Celsius","-","-","-","-","35.0","Celsius","-","-","-","-","","-",""
"N#CCCCN1C=C[N+](=C1)C.[Cl-]","-","-","AUTO_203","C0083_A0033","A132065","-","-","-","80.0","Celsius","-","-","-","-","80.0","Celsius","-","-","-","-","","-",""
"N#CCCCN1C=C[N+](=C1)C.F[B-](F)(F)F","-","-","AUTO_204","C0083_A0020","A132065","-","-","-","-72.0","Celsius","-","-","-","-","-72.0","Celsius","-","-","-","-","","-",""
"N#CCCCN1C=C[N+](=C1)C.CC(CC#N)[B-](F)(F)F","-","-","AUTO_205","C0083_A0029","A132065","-","-","-","-77.0","Celsius","-","-","-","-","-77.0","Celsius","-","-","-","-","","-",""
"N#CCCCN1C=C[N+](=C1)C.F[P-](F)(F)(F)(F)F","-","-","AUTO_206","C0083_A0011","A132065","-","-","-","75.0","Celsius","-","-","-","-","75.0","Celsius","-","-","-","-","","-",""
"N#CCCCCN1C=C[N+](=C1)C.[Cl-]","-","-","AUTO_207","C0196_A0033","A132065","-","-","-","32.0","Celsius","-","-","-","-","32.0","Celsius","-","-","-","-","","-",""
"N#CCCCCN1C=C[N+](=C1)C.F[B-](F)(F)F","-","-","AUTO_208","C0196_A0020","A132065","-","-","-","-72.0","Celsius","-","-","-","-","-72.0","Celsius","-","-","-","-","","-",""
"N#CCCCCN1C=C[N+](=C1)C.F[P-](F)(F)(F)(F)F","-","-","AUTO_209","C0196_A0011","A132065","-","-","-","-60.0","Celsius","-","-","-","-","-60.0","Celsius","-","-","-","-","","-",""
"CCCC[NH+]1C=CN(C1)CCP(=O)(OCC)OCC.F[B-](F)(F)F","-","-","AUTO_210","C0249_A0020","A132065","-","-","-","-81.0","Celsius","-","-","-","-","-81.0","Celsius","-","-","-","-","","-",""
"CCCC[NH+]1C=CN(C1)CCP(=O)(OCC)OCC.F[P-](F)(F)(F)(F)F","-","-","AUTO_211","C0249_A0011","A132065","-","-","-","-50.0","Celsius","-","-","-","-","-50.0","Celsius","-","-","-","-","","-",""
"CCCC[NH+]1C=CN(C1)CCCP(=O)(OCC)OCC.F[B-](F)(F)F","-","-","AUTO_212","C0166_A0020","A132065","-","-","-","-64.0","Celsius","-","-","-","-","-64.0","Celsius","-","-","-","-","","-",""
"CCCC[NH+]1C=CN(C1)CCCP(=O)(OCC)OCC.F[P-](F)(F)(F)(F)F","-","-","AUTO_213","C0166_A0011","A132065","-","-","-","-53.0","Celsius","-","-","-","-","-53.0","Celsius","-","-","-","-","","-",""
"CCCCCC[NH+]1C=CN(C1)CCP(=O)(OCC)OCC.F[B-](F)(F)F","-","-","AUTO_214","C0739_A0020","A132065","-","-","-","-83.0","Celsius","-","-","-","-","-83.0","Celsius","-","-","-","-","","-",""
"CCCCCC[NH+]1C=CN(C1)CCP(=O)(OCC)OCC.F[P-](F)(F)(F)(F)F","-","-","AUTO_215","C0739_A0011","A132065","-","-","-","-62.0","Celsius","-","-","-","-","-62.0","Celsius","-","-","-","-","","-",""
"CCCCCC[NH+]1C=CN(C1)CCCP(=O)(OCC)OCC.F[B-](F)(F)F","-","-","AUTO_216","C0393_A0020","A132065","-","-","-","-76.0","Celsius","-","-","-","-","-76.0","Celsius","-","-","-","-","","-",""
"CCCCCC[NH+]1C=CN(C1)CCCP(=O)(OCC)OCC.F[P-](F)(F)(F)(F)F","-","-","AUTO_217","C0393_A0011","A132065","-","-","-","-66.0","Celsius","-","-","-","-","-66.0","Celsius","-","-","-","-","","-",""
"CCCCCCCC[NH+]1C=CN(C1)CCP(=O)(OCC)OCC.F[B-](F)(F)F","-","-","AUTO_218","C0226_A0020","A132065","-","-","-","-80.0","Celsius","-","-","-","-","-80.0","Celsius","-","-","-","-","","-",""
"CCCCCCCC[NH+]1C=CN(C1)CCP(=O)(OCC)OCC.F[P-](F)(F)(F)(F)F","-","-","AUTO_219","C0226_A0011","A132065","-","-","-","-64.0","Celsius","-","-","-","-","-64.0","Celsius","-","-","-","-","","-",""
"CCCCCCCC[NH+]1C=CN(C1)CCCP(=O)(OCC)OCC.F[B-](F)(F)F","-","-","AUTO_220","C0094_A0020","A132065","-","-","-","-65.0","Celsius","-","-","-","-","-65.0","Celsius","-","-","-","-","","-",""
"CCCCCCCC[NH+]1C=CN(C1)CCCP(=O)(OCC)OCC.F[P-](F)(F)(F)(F)F","-","-","AUTO_221","C0094_A0011","A132065","-","-","-","-93.0","Celsius","-","-","-","-","-93.0","Celsius","-","-","-","-","","-",""
"C[N+]=1C=CN(C1)CCC(C(S(F)(F)(F)(F)F)(F)F)(F)F.C(F)(F)(F)S(=O)(=O)[N-]S(=O)(=O)C(F)(F)F","-","-","AUTO_222","C0257_A0048","A132065","-","-","-","-56.0","Celsius","-","-","-","-","-56.0","Celsius","-","-","-","-","","-",""
"C[N+]=1C=CN(C1)CCCCC(C(S(F)(F)(F)(F)F)(F)F)(F)F.C(F)(F)(F)S(=O)(=O)[N-]S(=O)(=O)C(F)(F)F","-","-","AUTO_223","C0742_A0048","A132065","-","-","-","-57.0","Celsius","-","-","-","-","-57.0","Celsius","-","-","-","-","","-",""
"C[N+]=1C=CN(C1)CCC(C(C(C(S(F)(F)(F)(F)F)(F)F)(F)F)(F)F)(F)F.C(F)(F)(F)S(=O)(=O)[N-]S(=O)(=O)C(F)(F)F","-","-","AUTO_224","C0892_A0048","A132065","-","-","-","-50.0","Celsius","-","-","-","-","-50.0","Celsius","-","-","-","-","","-",""
"C[N+]=1C=CN(C1)CCCSC(=S)N(C2=CC=CC=C2)C3=CC=CC=C3.F[P-](F)(F)(F)(F)F","-","-","AUTO_225","C0705_A0011","A132065","-","-","-","54.0","Celsius","-","-","-","-","54.0","Celsius","-","-","-","-","","-",""
"C[N+]=1C=CN(C1)CCCSC(=S)N2CCOCC2.F[P-](F)(F)(F)(F)F","-","-","AUTO_226","C0668_A0011","A132065","-","-","-","51.0","Celsius","-","-","-","-","51.0","Celsius","-","-","-","-","","-",""
"C[N+]=1C=CN(C1)CCCSC(=S)N2C=NC=C2.F[P-](F)(F)(F)(F)F","-","-","AUTO_227","C1077_A0011","A132065","-","-","-","125.0","Celsius","-","-","-","-","125.0","Celsius","-","-","-","-","","-",""
"BrCCC[N+]=1C=CN(C1)C.F[P-](F)(F)(F)(F)F","-","-","AUTO_228","C0435_A0011","A132065","-","-","-","46.0","Celsius","-","-","-","-","46.0","Celsius","-","-","-","-","","-",""
"CCCCN1C=C[N+](=C1)CC(O)C.[Cl-]","-","-","AUTO_229","C1139_A0033","A132065","-","-","-","137.0","Celsius","-","-","-","-","137.0","Celsius","-","-","-","-","","-",""
"CCCCNC(=O)CN1C=C[N+](=C1)C.F[P-](F)(F)(F)(F)F","-","-","AUTO_230","C0221_A0011","A132065","-","-","-","65.0","Celsius","-","-","-","-","65.0","Celsius","-","-","-","-","","-",""
"CCCCN(C(=O)CN1C=C[N+](=C1)C)C.F[P-](F)(F)(F)(F)F","-","-","AUTO_231","C0878_A0011","A132065","-","-","-","63.0","Celsius","-","-","-","-","63.0","Celsius","-","-","-","-","","-",""
"CCN(C(=O)C[N+]=1C=CN(C1)C)CC.[Br-]","-","-","AUTO_232","C0489_A0004","A132065","-","-","-","67.0","Celsius","-","-","-","-","67.0","Celsius","-","-","-","-","","-",""
"CCN(C(=O)C[N+]=1C=CN(C1)C)CC.C(F)(F)(F)S(=O)(=O)[N-]S(=O)(=O)C(F)(F)F","-","-","AUTO_233","C0489_A0048","A132065","-","-","-","44.0","Celsius","-","-","-","-","44.0","Celsius","-","-","-","-","","-",""
"CCN(C(=O)C[N+]=1C=CN(C1)C)CC.F[P-](F)(F)(F)(F)F","-","-","AUTO_234","C0489_A0011","A132065","-","-","-","65.0","Celsius","-","-","-","-","65.0","Celsius","-","-","-","-","","-",""
"C#CCN1C=C[N+](=C1)C.CC(CC#N)[B-](F)(F)F","-","-","AUTO_235","C0733_A0029","A132065","-","-","-","-80.0","Celsius","-","-","-","-","-80.0","Celsius","-","-","-","-","","-",""
"C=CCN1C=C[N+](=C1)C.F[B-](F)(F)F","-","-","AUTO_236","C0316_A0020","A132065","-","-","-","-81.0","Celsius","-","-","-","-","-81.0","Celsius","-","-","-","-","","-",""
"C=CCN1C=C[N+](=C1)C.CC(CC#N)[B-](F)(F)F","-","-","AUTO_237","C0316_A0029","A132065","-","-","-","-89.0","Celsius","-","-","-","-","-89.0","Celsius","-","-","-","-","","-",""
"OC(=O)CCCN1C=C[N+](=C1)C.CC(CC#N)[B-](F)(F)F","-","-","AUTO_238","C0188_A0029","A132065","-","-","-","-59.0","Celsius","-","-","-","-","-59.0","Celsius","-","-","-","-","","-",""
"C#CCN1C=C[N+](=C1)CC#C.F[B-](F)(F)F","-","-","AUTO_239","C0253_A0020","A132065","-","-","-","67.0","Celsius","-","-","-","-","67.0","Celsius","-","-","-","-","","-",""
"C#CCN1C=C[N+](=C1)CC#C.CC(CC#N)[B-](F)(F)F","-","-","AUTO_240","C0253_A0029","A132065","-","-","-","-55.0","Celsius","-","-","-","-","-55.0","Celsius","-","-","-","-","","-",""
"C=CCN1C=C[N+](=C1)CC=C.CC(CC#N)[B-](F)(F)F","-","-","AUTO_241","C1026_A0029","A132065","-","-","-","-87.0","Celsius","-","-","-","-","-87.0","Celsius","-","-","-","-","","-",""
"N#CCCCN1C=C[N+](=C1)CCCC#N.CC(CC#N)[B-](F)(F)F","-","-","AUTO_242","C0088_A0029","A132065","-","-","-","-70.0","Celsius","-","-","-","-","-70.0","Celsius","-","-","-","-","","-",""
"OC(=O)CCCN1C=C[N+](=C1)CCCC(=O)O.CC(CC#N)[B-](F)(F)F","-","-","AUTO_243","C0239_A0029","A132065","-","-","-","38.0","Celsius","-","-","-","-","38.0","Celsius","-","-","-","-","","-",""
"C[C@H](C[N+]=1C=CN(C1)C)OCC2=CC=CC=C2.[Br-]","-","-","AUTO_244","C0630_A0004","A132065","-","-","-","58.0","Celsius","-","-","-","-","58.0","Celsius","-","-","-","-","","-",""
"C[C@H](C[N+]=1C=CN(C1)C)OCC2=CC=CC=C2.F[B-](F)(F)F","-","-","AUTO_245","C0630_A0020","A132065","-","-","-","42.0","Celsius","-","-","-","-","42.0","Celsius","-","-","-","-","","-",""
"C[C@H](C[N+]=1C=CN(C1)C)OCC2=CC=CC=C2.F[P-](F)(F)(F)(F)F","-","-","AUTO_246","C0630_A0011","A132065","-","-","-","93.0","Celsius","-","-","-","-","93.0","Celsius","-","-","-","-","","-",""
"BrCC(C[N+]=1C=CN(C1)C)Br.F[P-](F)(F)(F)(F)F","-","-","AUTO_247","C1084_A0011","A132065","-","-","-","71.0","Celsius","-","-","-","-","71.0","Celsius","-","-","-","-","","-",""
"C#CCCCN1C=C[N+](=C1)CCCC#C.[Cl-]","-","-","AUTO_248","C0528_A0033","A132065","-","-","-","65.0","Celsius","-","-","-","-","65.0","Celsius","-","-","-","-","","-",""
"C#CCCCN1C=C[N+](=C1)CCCC#C.F[B-](F)(F)F","-","-","AUTO_249","C0528_A0020","A132065","-","-","-","-23.0","Celsius","-","-","-","-","-23.0","Celsius","-","-","-","-","","-",""
"C1=CC=C(C=C1)CN2C=C[N+](=C2)CC3=CC=CC=C3.FC(S(=O)(=O)[O-])(F)F","-","-","AUTO_250","C0841_A0084","A132065","-","-","-","73.0","Celsius","-","-","-","-","73.0","Celsius","-","-","-","-","","-",""
"C1=CC=C(C=C1)CN2C=C[N+](=C2)CC3=CC=CC=C3.S(=O)(=O)([O-])C1=CC=C(C)C=C1","-","-","AUTO_251","C0841_A0030","A132065","-","-","-","114.0","Celsius","-","-","-","-","114.0","Celsius","-","-","-","-","","-",""
"CC1=NC(=C([NH2+]1)C)C.[Cl-]","-","-","AUTO_252","C0210_A0033","A132065","-","-","-","194.0","Celsius","-","-","-","-","194.0","Celsius","-","-","-","-","","-",""
"CN1C=C[N+](=C1C)C.[Cl-]","-","-","AUTO_253","C1086_A0033","A132065","-","-","-","189.0","Celsius","-","-","-","-","189.0","Celsius","-","-","-","-","","-",""
"CCN1C=C[N+](=C1C)C.[Cl-]","-","-","AUTO_254","C0162_A0033","A132065","-","-","-","188.0","Celsius","-","-","-","-","188.0","Celsius","-","-","-","-","","-",""
"CCN1C=C[N+](=C1C)C.[Br-]","-","-","AUTO_255","C0162_A0004","A132065","-","-","-","141.0","Celsius","-","-","-","-","141.0","Celsius","-","-","-","-","","-",""
"CCN1C=C[N+](=C1C)C.FC(F)(F)C(F)(F)S(=O)(=O)[N-]S(=O)(=O)C(F)(F)C(F)(F)F","-","-","AUTO_256","C0162_A0067","A132065","-","-","-","25.0","Celsius","-","-","-","-","25.0","Celsius","-","-","-","-","","-",""
"CCN1C=C[N+](=C1C)C.FC(S(=O)(=O)[O-])(F)F","-","-","AUTO_257","C0162_A0084","A132065","-","-","-","109.0","Celsius","-","-","-","-","109.0","Celsius","-","-","-","-","","-",""
"CCN1C=C[N+](=C1C)C.FC(C(=O)[O-])(F)F","-","-","AUTO_258","C0162_A0064","A132065","-","-","-","59.0","Celsius","-","-","-","-","59.0","Celsius","-","-","-","-","","-",""
"CC[N+]1=CN(C=C1C)C.C(F)(F)(F)S(=O)(=O)[N-]S(=O)(=O)C(F)(F)F","-","-","AUTO_259","C0305_A0048","A132065","-","-","-","-39.0","Celsius","-","-","-","-","-39.0","Celsius","-","-","-","-","","-",""
"CC[N+]1=CN(C=C1C)C.FC(S(=O)(=O)[O-])(F)F","-","-","AUTO_260","C0305_A0084","A132065","-","-","-","6.0","Celsius","-","-","-","-","6.0","Celsius","-","-","-","-","","-",""
"CCN1C=C([N+](=C1)CC)C.C(C1=CC=CC=C1)(=O)[O-]","-","-","AUTO_261","C0443_A0031","A132065","-","-","-","16.0","Celsius","-","-","-","-","16.0","Celsius","-","-","-","-","","-",""
"CCN1C=C([N+](=C1)CC)C.C(F)(F)(F)S(=O)(=O)[N-]S(=O)(=O)C(F)(F)F","-","-","AUTO_262","C0443_A0048","A132065","-","-","-","-22.0","Celsius","-","-","-","-","-22.0","Celsius","-","-","-","-","","-",""
"CCN1C=C([N+](=C1)CC)C.FC(S(=O)(=O)[O-])(F)F","-","-","AUTO_263","C0443_A0084","A132065","-","-","-","35.0","Celsius","-","-","-","-","35.0","Celsius","-","-","-","-","","-",""
"CCCN1C=C[N+](=C1CC)CC.[Cl-]","-","-","AUTO_264","C0148_A0033","A132065","-","-","-","138.0","Celsius","-","-","-","-","138.0","Celsius","-","-","-","-","","-",""
"CCCN1C=C[N+](=C1C)C.C(F)(F)(F)S(=O)(=O)[N-]S(=O)(=O)C(F)(F)F","-","-","AUTO_265","C0052_A0048","A132065","-","-","-","15.0","Celsius","-","-","-","-","15.0","Celsius","-","-","-","-","","-",""
"CCCN1C=C[N+](=C1C)C.FC(F)(F)C(F)(F)S(=O)(=O)[N-]S(=O)(=O)C(F)(F)C(F)(F)F","-","-","AUTO_266","C0052_A0067","A132065","-","-","-","34.0","Celsius","-","-","-","-","34.0","Celsius","-","-","-","-","","-",""
"CCCN1C=C[N+](=C1C)C.F[P-](F)(F)(F)(F)F","-","-","AUTO_267","C0052_A0011","A132065","-","-","-","78.0","Celsius","-","-","-","-","78.0","Celsius","-","-","-","-","","-",""
"CC[N+]=1C=CN(C1CC)C.C(F)(F)(F)S(=O)(=O)[N-]S(=O)(=O)C(F)(F)F","-","-","AUTO_268","C0862_A0048","A132065","-","-","-","28.0","Celsius","-","-","-","-","28.0","Celsius","-","-","-","-","","-",""
"CC[N+]=1C=CN(C1CC)C.FC(S(=O)(=O)[O-])(F)F","-","-","AUTO_269","C0862_A0084","A132065","-","-","-","113.0","Celsius","-","-","-","-","113.0","Celsius","-","-","-","-","","-",""
"CCCC[N+]=1C=CN(C1C)C.F[B-](F)(F)F","-","-","AUTO_270","C1098_A0020","A132065","-","-","-","37.0","Celsius","-","-","-","-","37.0","Celsius","-","-","-","-","","-",""
"CCCC[N+]=1C=CN(C1C)C.O=C1[N-]S(=O)(=O)C2=CC=CC=C12","-","-","AUTO_271","C1098_A0007","A132065","-","-","-","70.0","Celsius","-","-","-","-","70.0","Celsius","-","-","-","-","","-",""