"SMILES","CASRN","EXTERNALID","N","NAME","ARTICLEID","PUBMEDID","PAGE","TABLE","Melting Point","UNIT {Melting Point}","Decomposition","UNIT {Decomposition}","Glass-transition temperature (Tg)","UNIT {Glass-transition temperature (Tg)}","Melting Point {measured, converted}","UNIT {Melting Point}","Decomposition {measured, converted}","UNIT {Decomposition}","Glass-transition temperature (Tg) {measured, converted}","UNIT {Glass-transition temperature (Tg)}","weight loss","UNIT {weight loss}","Solvent"
"[Br-].CCCCCC[N+]1=CC=C(C=C1)N2CCC(C)CC2","-","-","AUTO_1270","-","A140250","-","-","-","-","-","243.85","Celsius","-","-","-","-","243.85","Celsius","-","-","","-",""
"[I-].C[N+]1=CC=C(C=C1)C2=CC=NC=C2","-","-","AUTO_1271","-","A139504","3752512","-","-","-","-","244.0","Celsius","-","-","-","-","244.0","Celsius","-","-","","-",""
"[O-]Cl(=O)(=O)=O.CN1C=C[N+](C)=C1","-","-","AUTO_1272","-","A140250","-","-","-","-","-","244.0","Celsius","-","-","-","-","244.0","Celsius","-","-","","-",""
"FC(F)(F)S(=O)(=O)[N-]S(=O)(=O)C(F)(F)F.COC1=CC=C(C[N+](C)(C)CC2=CC=C(OC)C=C2)C=C1","-","-","AUTO_1275","-","A139561","24163003","-","-","-","-","244.0","Celsius","-","-","-","-","244.0","Celsius","-","-","","-",""
"FC(F)(F)S(=O)(=O)[N-]S(=O)(=O)C(F)(F)F.CCCC[N+]1=CC(CN(C)[C@H](CO)CC(C)C)=CC=C1","-","-","AUTO_1276","-","A140250","-","-","-","-","-","244.0","Celsius","-","-","-","-","244.0","Celsius","-","-","","-",""
"COC1=CC(/C=C/C([O-])=O)=CC=C1O.CCCCCCCCCCCCCC[P+](CCCCCC)(CCCCCC)CCCCCC","-","-","AUTO_1277","-","A139540","19902435","-","-","-","-","244.0","Celsius","-","-","-","-","244.0","Celsius","-","-","","-",""
"OS([O-])(=O)=O.CCCCCCCCCCCCCC[P+](CCCCCC)(CCCCCC)CCCCCC","-","-","AUTO_1278","-","A139594","32108186","-","","-","-","244.0","Celsius","-","-","-","-","244.0","Celsius","-","-","","-",""
"[O-]C=O.[NH3+]CCOCCO","-","-","AUTO_1280","-","A140250","-","-","","-","-","244.74","Celsius","-","-","-","-","244.74","Celsius","-","-","","-",""
"[I-].CC1=[N+](C)C2=CC=CC=C2C1(C)C","-","-","AUTO_1281","-","A139525","17665379","-","-","-","-","245.0","Celsius","-","-","-","-","245.0","Celsius","-","-","","-",""
"O=C1[N-]S(=O)(=O)C2=CC=CC=C12.CCCCCCCC[N+]1=CN(C)C=C1","-","-","AUTO_1284","-","A139534","19039369","-","-","-","-","245.0","Celsius","-","-","-","-","245.0","Celsius","-","-","","-",""
"CC(O)C([O-])=O.C[N+]1=CN(CC=C)C=C1","-","-","AUTO_1286","-","A139567","24888334","-","-","-","-","245.0","Celsius","-","-","-","-","245.0","Celsius","-","-","","-",""
"FC(F)(F)S(=O)(=O)[N-]S(=O)(=O)C(F)(F)F.CCCCCCCCSC[N+]1=CN(C)C=C1","-","-","AUTO_1287","-","A139567","24888334","-","-","-","-","245.0","Celsius","-","-","-","-","245.0","Celsius","-","-","","-",""
"CC(C)C1=NC(C#N)=C([N-]1)C#N.CCCCCCCCN1C=C[N+](C)=C1","-","-","AUTO_1288","-","A140250","-","-","-","-","-","245.0","Celsius","-","-","-","-","245.0","Celsius","-","-","","-",""
"CCCCCCCCN1C=C[N+](C)=C1.CCCCCC1=NC(C#N)=C([N-]1)C#N","-","-","AUTO_1289","-","A139571","25498686","-","-","-","-","245.0","Celsius","-","-","-","-","245.0","Celsius","-","-","","-",""
"OP(O)([O-])=O.CC[NH+](CC)C/C=C/C1=CC=CC=C1","-","-","AUTO_1290","-","A140250","-","-","","-","-","245.0","Celsius","-","-","-","-","245.0","Celsius","-","-","","-",""
"C[N+](C)(C)CCO.OC(=O)CCCCC([O-])=O","-","-","AUTO_1292","-","A139569","25242504","-","-","-","-","245.2","Celsius","-","-","-","-","245.2","Celsius","-","-","","-",""
"[Cl-].C[NH+](C)CCCN1C2=CC=CC=C2CCC3=C1C=CC=C3","-","-","AUTO_1293","-","A140250","-","-","","-","-","246.0","Celsius","-","-","-","-","246.0","Celsius","-","-","","-",""
"[C@H](N)(CC(O)=O)C([O-])=O.CCCC[P+](CCCC)(CCCC)CCCC","-","-","AUTO_1295","-","A140250","-","-","-","-","-","246.0","Celsius","-","-","-","-","246.0","Celsius","-","-","","-",""
"[Br-].CCCCCCCCCCCCOC1=CC=C(C=C1)C(=O)NC2=CC=C(C=C2)N3C=C[N+](CCCC)=C3","-","-","AUTO_1297","-","A140250","-","-","-","-","-","246.0","Celsius","-","-","-","-","246.0","Celsius","-","-","","-",""
"C[N+]1(C[C@@H]2CCCN2)CCCC1.FC(F)(F)S(=O)(=O)[N-]S(=O)(=O)C(F)(F)F","-","-","AUTO_1298","-","A140250","-","-","-","-","-","246.0","Celsius","-","-","-","-","246.0","Celsius","-","-","","-",""
"CCOP([O-])(=O)OCC.CC[N+]1=C2CCCCCN2CCC1","-","-","AUTO_1300","-","A139518","16718320","-","-","-","-","246.0","Celsius","-","-","-","-","246.0","Celsius","-","-","","-",""
"[BH3-]C#N.CC[N+]1=CN(C)C=C1","-","-","AUTO_1302","-","A140250","-","-","-","-","-","247.0","Celsius","-","-","-","-","247.0","Celsius","-","-","","-",""
"CCCCCC[N+]1=CN(C)C=C1.[O-]S(=O)(=O)C1=CC=C2OCCOCCOCCOCCOC2=C1","-","-","AUTO_1303","-","A139567","24888334","-","-","-","-","247.0","Celsius","-","-","-","-","247.0","Celsius","-","-","","-",""
"CCCCN1C=C[N+](C)=C1.CC(C)C1=NC(C#N)=C([N-]1)C#N","-","-","AUTO_1304","-","A139565","24737218","-","-","-","-","247.0","Celsius","-","-","-","-","247.0","Celsius","-","-","","-",""
"CS([O-])(=O)=O.CCCC[NH+]1C[Si](C)(C)O[Si](C)(C)C1","-","-","AUTO_1305","-","A140250","-","-","","-","-","247.0","Celsius","-","-","-","-","247.0","Celsius","-","-","","-",""
"CS([O-])(=O)=O.C[Si]1(C)C[NH+](C[Si](C)(C)O1)C2CCCC2","-","-","AUTO_1306","-","A140250","-","-","","-","-","247.0","Celsius","-","-","-","-","247.0","Celsius","-","-","","-",""
"[O-]Cl(=O)(=O)=O.CN1C=C[N+](CCCS(F)(F)(F)(F)F)=C1","-","-","AUTO_1309","-","A140250","-","-","-","-","-","247.1","Celsius","-","-","-","-","247.1","Celsius","-","-","","-",""
"[O-]S(Cl)(=O)=O.CCCC[NH2+]CCCC","-","-","AUTO_1310","-","A140250","-","-","","-","-","247.3","Celsius","-","-","-","-","247.3","Celsius","-","-","","-",""
"OCC([O-])=O.C[N+]1=CN(CC=C)C=C1","-","-","AUTO_1311","-","A139567","24888334","-","-","-","-","248.0","Celsius","-","-","-","-","248.0","Celsius","-","-","","-",""
"F[P-](F)(F)(F)(F)F.C[N+]1=CN(CN2C=CC=N2)C=C1","-","-","AUTO_1314","-","A140250","-","-","","-","-","248.0","Celsius","-","-","-","-","248.0","Celsius","-","-","","-",""
"CCCC[N+]1=CN(C)C=C1.[O-]S(=O)(=O)NC1CCCCC1","-","-","AUTO_1315","-","A139571","25498686","-","-","-","-","248.0","Celsius","-","-","-","-","248.0","Celsius","-","-","","-",""
"ClC1=NC(C#N)=C([N-]1)C#N.CCCCCCCCN1C=C[N+](C)=C1","-","-","AUTO_1316","-","A140250","-","-","-","-","-","248.0","Celsius","-","-","-","-","248.0","Celsius","-","-","","-",""
"[Br-].CC[N+](C)(C)CCOC","-","-","AUTO_1320","-","A140250","-","-","-","-","-","249.0","Celsius","-","-","-","-","249.0","Celsius","-","-","","-",""
"[I-].C=CCN1C=C[N+](CC=C)=C1","-","-","AUTO_1321","-","A139579","26885778","-","-","-","-","249.0","Celsius","-","-","-","-","249.0","Celsius","-","-","","-",""
"CC[N+](CC)(CC)CC.O=N(=O)C1=NC(C#N)=C([N-]1)C#N","-","-","AUTO_1323","-","A140250","-","-","-","-","-","249.0","Celsius","-","-","-","-","249.0","Celsius","-","-","","-",""
"C1=CC=[NH+]C=C1.[O-]C(=O)C(=CC1=CC=C(O)C=C1)C#N","-","-","AUTO_1324","-","A139510","15584076","-","","-","-","249.0","Celsius","-","-","-","-","249.0","Celsius","-","-","","-",""
"CC(=O)NCC([O-])=O.CCCCCCCCCCCC[N+]1(C)CCOCC1","-","-","AUTO_1325","-","A139592","32006830","-","-","-","-","249.0","Celsius","-","-","-","-","249.0","Celsius","-","-","","-",""
"F[P-](F)(F)(F)(F)F.CCCCCCCC[N+](CC)(CC)CC","-","-","AUTO_1327","-","A140250","-","-","","-","-","249.8","Celsius","-","-","-","-","249.8","Celsius","-","-","","-",""
"[Cl-].[C@H](CC)(CO)[NH2+]CCN[C@@H](CC)CO","-","-","AUTO_1328","-","A140250","-","-","","-","-","250.0","Celsius","-","-","-","-","250.0","Celsius","-","-","","-",""
"[O-]S(=O)(=O)C(F)(F)F.CCCCCCCC[N+]1=CN(C)C=C1","-","-","AUTO_1329","-","A140250","-","-","-","-","-","250.0","Celsius","-","-","-","-","250.0","Celsius","-","-","","-",""
"N#C[N-]C#N.CCCCCCCC[N+]1=CN(C)C=C1","-","-","AUTO_1331","-","A140250","-","-","-","-","-","250.0","Celsius","-","-","-","-","250.0","Celsius","-","-","","-",""
"N#C[N-]C#N.CN1C=C[N+](CC2=CC=CC=C2)=C1","-","-","AUTO_1332","-","A140250","-","-","-","-","-","250.0","Celsius","-","-","-","-","250.0","Celsius","-","-","","-",""
"CCCCCCCC[N+]1=CN(C)C=C1.[O-]S(=O)(=O)C(F)(F)C(F)(F)C(F)(F)C(F)(F)F","-","-","AUTO_1334","-","A139525","17665379","-","-","-","-","250.0","Celsius","-","-","-","-","250.0","Celsius","-","-","","-",""
"F[B-](F)(C#N)C(F)(F)C(F)(F)F.CCCC[N+](CCCC)(CCCC)CCCC","-","-","AUTO_1337","-","A139525","17665379","-","-","-","-","250.0","Celsius","-","-","-","-","250.0","Celsius","-","-","","-",""
"CCCCN1C=C[N+](C)=C1.C[Si](C)(C)C1=CC=C(C=C1)[B-](C2=CC=C(C=C2)[Si](C)(C)C)(C3=CC=C(C=C3)[Si](C)(C)C)C4=CC=C(C=C4)[Si](C)(C)C","-","-","AUTO_1338","-","A139586","28884848","-","-","-","-","250.0","Celsius","-","-","-","-","250.0","Celsius","-","-","","-",""
"[O-]Cl(=O)(=O)=O.CN1C=[N+](CC#N)C=N1","-","-","AUTO_1340","-","A139567","24888334","-","-","-","-","250.0","Celsius","-","-","-","-","250.0","Celsius","-","-","","-",""
"[Cl-].CCCCNC(=O)[C@H](CC1=CC=CC=C1)N2C=C[N+](CC3=CC=CC=C3)=C2","-","-","AUTO_1342","-","A139567","24888334","-","-","-","-","250.0","Celsius","-","-","-","-","250.0","Celsius","-","-","","-",""
"CCCCN1C=C[N+](C)=C1.CCCCC1=NC(C#N)=C([N-]1)C#N","-","-","AUTO_1345","-","A139567","24888334","-","-","-","-","250.0","Celsius","-","-","-","-","250.0","Celsius","-","-","","-",""
"CCCCN1C=C[N+](C)=C1.CCCCCC1=NC(C#N)=C([N-]1)C#N","-","-","AUTO_1346","-","A139567","24888334","-","-","-","-","250.0","Celsius","-","-","-","-","250.0","Celsius","-","-","","-",""
"CCCCN1C=C[N+](C)=C1.CCCCCCC1=NC(C#N)=C([N-]1)C#N","-","-","AUTO_1347","-","A139567","24888334","-","-","-","-","250.0","Celsius","-","-","-","-","250.0","Celsius","-","-","","-",""
"CCCCN1C=C[N+](C)=C1.CCCCCCCCCC1=NC(C#N)=C([N-]1)C#N","-","-","AUTO_1348","-","A139567","24888334","-","-","-","-","250.0","Celsius","-","-","-","-","250.0","Celsius","-","-","","-",""
"CCCCN1C=C[N+](C)=C1.CCCCCCCCCCC1=NC(C#N)=C([N-]1)C#N","-","-","AUTO_1349","-","A139567","24888334","-","-","-","-","250.0","Celsius","-","-","-","-","250.0","Celsius","-","-","","-",""
"CCCCCCCCN1C=C[N+](C)=C1.CCCCCCCC1=NC(C#N)=C([N-]1)C#N","-","-","AUTO_1350","-","A139567","24888334","-","-","-","-","250.0","Celsius","-","-","-","-","250.0","Celsius","-","-","","-",""
"CCCCCCCCN1C=C[N+](C)=C1.CCCCCCCCCCC1=NC(C#N)=C([N-]1)C#N","-","-","AUTO_1351","-","A140250","-","-","-","-","-","250.0","Celsius","-","-","-","-","250.0","Celsius","-","-","","-",""
"CCCCN1C=C[N+](C)=C1.COC1=NC(C#N)=C([N-]1)C#N","-","-","AUTO_1352","-","A140250","-","-","-","-","-","250.0","Celsius","-","-","-","-","250.0","Celsius","-","-","","-",""
"[Cl-].CC[C@H](C)C[N+]1=C(C)N(C)C=C1","-","-","AUTO_1354","-","A140250","-","-","-","-","-","250.0","Celsius","-","-","-","-","250.0","Celsius","-","-","","-",""
"CS([O-])(=O)=O.CO[C@@H]1O[C@H](C[N+]2=CC=CC=C2)[C@@H](OC)[C@H](OC)[C@H]1OC","-","-","AUTO_1355","-","A140250","-","-","-","-","-","250.0","Celsius","-","-","-","-","250.0","Celsius","-","-","","-",""
"OC(=O)C([O-])=O.CCCCCCCCCCN1C=C[N+](CCCCCCCCCC)=C1","-","-","AUTO_1356","-","A140250","-","-","-","-","-","250.0","Celsius","-","-","-","-","250.0","Celsius","-","-","","-",""
"FC(F)(F)S(=O)(=O)[N-]S(=O)(=O)C(F)(F)F.CCCCCCCCCCOC[N+](C)(C)CCO","-","-","AUTO_1358","-","A139567","24888334","-","-","-","-","251.0","Celsius","-","-","-","-","251.0","Celsius","-","-","","-",""
"FC(F)(F)S(=O)(=O)[N-]S(=O)(=O)C(F)(F)F.CCCCCCCCCCCOC[N+](C)(C)CCO","-","-","AUTO_1359","-","A140250","-","-","-","-","-","251.0","Celsius","-","-","-","-","251.0","Celsius","-","-","","-",""
"FC(F)(F)S(=O)(=O)[N-]S(=O)(=O)C(F)(F)F.CCCCCCCCCCCCOC[N+](C)(C)CCO","-","-","AUTO_1360","-","A140250","-","-","-","-","-","251.0","Celsius","-","-","-","-","251.0","Celsius","-","-","","-",""
"FC(F)(F)S(=O)(=O)[N-]S(=O)(=O)C(F)(F)F.CCCC[N+]1=CC(CN(C)[C@@H](C)[C@H](O)C2=CC=CC=C2)=CC=C1","-","-","AUTO_1362","-","A140250","-","-","-","-","-","251.0","Celsius","-","-","-","-","251.0","Celsius","-","-","","-",""
"COC1=NC(C#N)=C([N-]1)C#N.CCCCCCCCN1C=C[N+](C)=C1","-","-","AUTO_1363","-","A139561","24163003","-","-","-","-","251.0","Celsius","-","-","-","-","251.0","Celsius","-","-","","-",""
"OS([O-])(=O)=O.CN1C=C[N+](CCC(O)=O)=C1","-","-","AUTO_1365","-","A140250","-","-","-","-","-","251.15","Celsius","-","-","-","-","251.15","Celsius","-","-","","-",""
"[Br-].CCCCCC[N+]1=CC=C(C=C1)N(C)C","-","-","AUTO_1366","-","A140250","-","-","-","-","-","251.85","Celsius","-","-","-","-","251.85","Celsius","-","-","","-",""
"[Br-].C=CCN1C=C[N+](CC=C)=C1","-","-","AUTO_1367","-","A140250","-","-","-","-","-","252.0","Celsius","-","-","-","-","252.0","Celsius","-","-","","-",""
"CC[N+](CC)(CC)CC.CC1=NC(C#N)=C([N-]1)C#N","-","-","AUTO_1370","-","A139579","26885778","-","-","-","-","252.0","Celsius","-","-","-","-","252.0","Celsius","-","-","","-",""
"N#C[BH2-]C#N.CCCC[N+]1=CC=CC=C1","-","-","AUTO_1372","-","A139567","24888334","-","-","-","-","252.0","Celsius","-","-","-","-","252.0","Celsius","-","-","","-",""
"CCCCC1=NC(C#N)=C([N-]1)C#N.CCCCCCCCN1C=C[N+](C)=C1","-","-","AUTO_1374","-","A139550","21246695","-","-","-","-","252.0","Celsius","-","-","-","-","252.0","Celsius","-","-","","-",""
"[Br-].CCCC[N+]1=CC=C(C=C1)N(C)C","-","-","AUTO_1376","-","A140250","-","-","-","-","-","252.85","Celsius","-","-","-","-","252.85","Celsius","-","-","","-",""
"CS([O-])(=O)=O.CCCCCCCC[N+]1=CC=C(C=C1)N(C)C","-","-","AUTO_1377","-","A140250","-","-","-","-","-","252.99","Celsius","-","-","-","-","252.99","Celsius","-","-","","-",""
"[Br-].COCC[N+](C)(C)C","-","-","AUTO_1378","-","A139519","16855692","-","-","-","-","253.0","Celsius","-","-","-","-","253.0","Celsius","-","-","","-",""
"[Br-].CCCCCCCC[N+]1=CN(CC=C)C=C1","-","-","AUTO_1379","-","A139519","16855692","-","-","-","-","253.0","Celsius","-","-","-","-","253.0","Celsius","-","-","","-",""
"CCCCN1C=C[N+](C)=C1.COC(=O)[C@@H]([N-]S(=O)(=O)C(F)(F)F)C(C)C","-","-","AUTO_1381","-","A140250","-","-","-","-","-","253.0","Celsius","-","-","-","-","253.0","Celsius","-","-","","-",""
"COC(=O)[C@H](C)[N-]S(=O)(=O)C(F)(F)F.CCCC[P+](CCCC)(CCCC)CCCC","-","-","AUTO_1382","-","A139510","15584076","-","-","-","-","253.0","Celsius","-","-","-","-","253.0","Celsius","-","-","","-",""
"[O-]S(O)(=O)=O.CC[NH+](CC)CC1=CC=CO1","-","-","AUTO_1383","-","A140250","-","-","","-","-","253.0","Celsius","-","-","-","-","253.0","Celsius","-","-","","-",""
"C[N+](C)(C)N.N#C[N-]C#N","-","-","AUTO_1386","-","A139542","20135648","-","-","-","-","253.5","Celsius","-","-","-","-","253.5","Celsius","-","-","","-",""
"[Cl-].CCCCCCCCCC[N+]1=CC=CC=C1","-","-","AUTO_1387","-","A140250","-","-","-","-","-","254.0","Celsius","-","-","-","-","254.0","Celsius","-","-","","-",""
"[Br-].COCC[N+]1(C)CCCCC1","-","-","AUTO_1389","-","A140250","-","-","-","-","-","254.0","Celsius","-","-","-","-","254.0","Celsius","-","-","","-",""
"[N-]=[N+]=[N-].CC[N+](C)(CC)CC","-","-","AUTO_1390","-","A140250","-","-","-","-","-","254.0","Celsius","-","-","-","-","254.0","Celsius","-","-","","-",""
"OC1=CC=C(C=C1)/C=C(\C#N)/C([O-])=O.CCCCCCCCCCCCCC[P+](CCCCCC)(CCCCCC)CCCCCC","-","-","AUTO_1391","-","A139517","16586524","-","-","-","-","254.0","Celsius","-","-","-","-","254.0","Celsius","-","-","","-",""
"F[P-](F)(F)(F)(F)F.FC(F)(F)CCC[N+]1=CN(CN2C=CC=N2)C=C1","-","-","AUTO_1392","-","A139515","16389616","-","","-","-","254.0","Celsius","-","-","-","-","254.0","Celsius","-","-","","-",""
"CCCC[N+]1=CN(C)C=C1.O=N(=O)C1=NC(=C[N-]1)N(=O)=O","-","-","AUTO_1393","-","A140250","-","-","-","-","-","254.0","Celsius","-","-","-","-","254.0","Celsius","-","-","","-",""
"[O-]S(O)(=O)=O.CC[NH+](CC)CC1=CC(OC)=CC=C1","-","-","AUTO_1394","-","A140250","-","-","","-","-","254.0","Celsius","-","-","-","-","254.0","Celsius","-","-","","-",""
"[O-]S(O)(=O)=O.CC[NH+](CC)C/C=C/C1=CC=CC=C1","-","-","AUTO_1395","-","A140250","-","-","","-","-","254.0","Celsius","-","-","-","-","254.0","Celsius","-","-","","-",""
"CS([O-])(=O)=O.CCCCCCCCCCCCCCOC(=O)C[N+](C)(C)C","-","-","AUTO_1396","-","A140250","-","-","-","-","-","254.0","Celsius","-","-","-","-","254.0","Celsius","-","-","","-",""
"CS([O-])(=O)=O.CC(C)(C)[NH+]1C[Si](C)(C)O[Si](C)(C)C1","-","-","AUTO_1397","-","A140250","-","-","","-","-","254.0","Celsius","-","-","-","-","254.0","Celsius","-","-","","-",""
"[Br-].CCCC[N+]1(C)CCCCC1","-","-","AUTO_1400","-","A139579","26885778","-","-","-","-","255.0","Celsius","-","-","-","-","255.0","Celsius","-","-","","-",""
"COC1=C(/C=C/C([O-])=O)C=CC=C1.CCCCCCCCCCCCCCCC[N+]1=CN(C)C=C1","-","-","AUTO_1402","-","A139579","26885778","-","-","-","-","255.0","Celsius","-","-","-","-","255.0","Celsius","-","-","","-",""
"CCN(CC)C([S-])=S.CCCCCCCCCCCCCC[P+](CCCCCC)(CCCCCC)CCCCCC","-","-","AUTO_1403","-","A139567","24888334","-","-","-","-","255.0","Celsius","-","-","-","-","255.0","Celsius","-","-","","-",""
"BrC1=NC(C#N)=C([N-]1)C#N.CCCCCCCCN1C=C[N+](C)=C1","-","-","AUTO_1404","-","A139567","24888334","-","-","-","-","255.0","Celsius","-","-","-","-","255.0","Celsius","-","-","","-",""
"CCCC1=NC(C#N)=C([N-]1)C#N.CCCCCCCCN1C=C[N+](C)=C1","-","-","AUTO_1405","-","A139570","25328142","-","-","-","-","255.0","Celsius","-","-","-","-","255.0","Celsius","-","-","","-",""
"CN(C)C1=NC(C#N)=C([N-]1)C#N.CCCCCCCC[N+]1=CN(C)C=C1","-","-","AUTO_1406","-","A139515","16389616","-","-","-","-","255.0","Celsius","-","-","-","-","255.0","Celsius","-","-","","-",""
"CC[N+](CC)(CC)CC.FC(F)(F)C1=NC(C#N)=C([N-]1)C#N","-","-","AUTO_1407","-","A140250","-","-","-","-","-","255.0","Celsius","-","-","-","-","255.0","Celsius","-","-","","-",""
"CCCC(OC1=CC=C(OC(CCC)C([O-])=O)C=C1)C([O-])=O.CCCCCCCCCCCCCC[P+](CCCCCC)(CCCCCC)CCCCCC","-","-","AUTO_1408","-","A140250","-","-","-","-","-","255.0","Celsius","-","-","-","-","255.0","Celsius","-","-","","-",""
"[Cl-].CCCCCCCCCCN1C=C[N+](CCCCCCCCCC)=C1","-","-","AUTO_1409","-","A140250","-","-","-","-","-","256.0","Celsius","-","-","-","-","256.0","Celsius","-","-","","-",""
"[Br-].CCC[N+]1=CN(CC=C)C=C1","-","-","AUTO_1410","-","A140250","-","-","-","-","-","256.0","Celsius","-","-","-","-","256.0","Celsius","-","-","","-",""
"F[P-](F)(F)(F)(F)F.CCCCCC[N+]1=CN(CN2C=CC=N2)C=C1","-","-","AUTO_1411","-","A139567","24888334","-","","-","-","256.0","Celsius","-","-","-","-","256.0","Celsius","-","-","","-",""
"CCC1=NC(C#N)=C([N-]1)C#N.CCCCCCCCN1C=C[N+](C)=C1","-","-","AUTO_1413","-","A139567","24888334","-","-","-","-","256.0","Celsius","-","-","-","-","256.0","Celsius","-","-","","-",""
"CCCCCCCCN1C=C[N+](C)=C1.CCCCCCCCCCCC1=NC(C#N)=C([N-]1)C#N","-","-","AUTO_1414","-","A140250","-","-","-","-","-","256.0","Celsius","-","-","-","-","256.0","Celsius","-","-","","-",""
"CCCCN1C=C[N+](C)=C1.FC(F)(F)[C-]1N=C(C#N)C(=N1)C#N","-","-","AUTO_1417","-","A140250","-","-","-","-","-","257.0","Celsius","-","-","-","-","257.0","Celsius","-","-","","-",""
"[Cl-].CCCCCCCCN1C=C[N+](CCCCCCCC)=C1","-","-","AUTO_1418","-","A140250","-","-","-","-","-","257.0","Celsius","-","-","-","-","257.0","Celsius","-","-","","-",""
"CC([O-])=O.CCCCCCN1C=C[N+](CCCCCC)=C1","-","-","AUTO_1420","-","A140250","-","-","-","-","-","257.0","Celsius","-","-","-","-","257.0","Celsius","-","-","","-",""
"[I-].CCC[N+]1=CC=CC=N1","-","-","AUTO_1421","-","A140250","-","-","-","-","-","257.0","Celsius","-","-","-","-","257.0","Celsius","-","-","","-",""
"CS([O-])(=O)=O.CCCCCCCCCCCCCCCCOC(=O)C[N+](C)(C)C","-","-","AUTO_1422","-","A140250","-","-","-","-","-","257.0","Celsius","-","-","-","-","257.0","Celsius","-","-","","-",""
"CCCC[N+]1=CN(C)C=C1.CN(C)C1=NC(C#N)=C([N-]1)C#N","-","-","AUTO_1423","-","A139579","26885778","-","-","-","-","257.0","Celsius","-","-","-","-","257.0","Celsius","-","-","","-",""
"FS(=O)(=O)[N-]S(F)(=O)=O.CCC[N+]1(C)CCCC1OC","-","-","AUTO_1424","-","A139579","26885778","-","-","-","-","257.0","Celsius","-","-","-","-","257.0","Celsius","-","-","","-",""
"CCCCCCCC[N+]1=CN(C)C=C1.N#CC1(O[B-]2(OC1(C#N)C#N)OC(C#N)(C#N)C(O2)(C#N)C#N)C#N","-","-","AUTO_1426","-","A140250","-","-","-","-","-","257.1","Celsius","-","-","-","-","257.1","Celsius","-","-","","-",""
"[Cl-].CCCCCCCCCCCCCC[N+]1=CN(C)C=C1","-","-","AUTO_1428","-","A140250","-","-","-","-","-","258.0","Celsius","-","-","-","-","258.0","Celsius","-","-","","-",""
"CC([O-])=O.CCN1C=C[N+](CC)=C1","-","-","AUTO_1429","-","A140250","-","-","-","-","-","258.0","Celsius","-","-","-","-","258.0","Celsius","-","-","","-",""