"SMILES","CASRN","EXTERNALID","N","NAME","ARTICLEID","PUBMEDID","PAGE","TABLE","Melting Point","UNIT {Melting Point}","Decomposition","UNIT {Decomposition}","Glass-transition temperature (Tg)","UNIT {Glass-transition temperature (Tg)}","Melting Point {measured, converted}","UNIT {Melting Point}","Decomposition {measured, converted}","UNIT {Decomposition}","Glass-transition temperature (Tg) {measured, converted}","UNIT {Glass-transition temperature (Tg)}","weight loss","UNIT {weight loss}","Solvent"
"CC(OC1=CC=C(Cl)C=C1Cl)C([O-])=O.CCCCCCCCCC[N+](C)(C)CCCCCCCCCC","-","-","AUTO_973","-","A132545","-","-","-","-","-","215.0","Celsius","-","-","-","-","215.0","Celsius","-","-","","-",""
"CC(OC1=CC=C(Cl)C=C1Cl)C([O-])=O.CCCCCCCCCCCC[N+](C)(C)C","-","-","AUTO_974","-","A132545","-","-","-","-","-","215.0","Celsius","-","-","-","-","215.0","Celsius","-","-","","-",""
"[O-]S(=O)(=O)C(F)(F)F.CCO[C@@H]1[C@@H](C[N+]2=CC=CC=C2)O[C@@H](OC)[C@H](OCC)[C@H]1OCC","-","-","AUTO_975","-","A139601","33908684","-","-","-","-","215.0","Celsius","-","-","-","-","215.0","Celsius","-","-","","-",""
"[O-]S(=O)(=O)CCCNC1CCCCC1.CCCC[N+](CCCC)(CCCC)CCCC","-","-","AUTO_976","-","A139593","32027458","-","-","-","-","216.0","Celsius","-","-","-","-","216.0","Celsius","-","-","","-",""
"[C-]#N.CCC[N+](C)(CCC)CCC","-","-","AUTO_977","-","A132545","-","-","-","-","-","216.0","Celsius","-","-","-","-","216.0","Celsius","-","-","","-",""
"CC[N+](CC)(CC)CC.O=N(=O)C1=NC(=C[N-]1)N(=O)=O","-","-","AUTO_978","-","A139517","16586524","-","-","-","-","216.0","Celsius","-","-","-","-","216.0","Celsius","-","-","","-",""
"N[C@@H](CO)C([O-])=O.CN1C=C[N+](CCO)=C1","-","-","AUTO_980","-","A132545","-","-","-","-","-","216.81","Celsius","-","-","-","-","216.81","Celsius","-","-","","-",""
"N[C@@H](CO)C([O-])=O.CCCCCCCC[N+]1=CN(C)C=C1","-","-","AUTO_981","-","A139574","25965417","-","-","-","-","216.84","Celsius","-","-","-","-","216.84","Celsius","-","-","","-",""
"[C@H](N)(CCSC)C([O-])=O.CCCC[P+](CCCC)(CCCC)CCCC","-","-","AUTO_984","-","A139571","25498686","-","-","-","-","217.0","Celsius","-","-","-","-","217.0","Celsius","-","-","","-",""
"CCCC([O-])=O.C[N+]1=CN(CC=C)C=C1","-","-","AUTO_985","-","A139550","21246695","-","-","-","-","217.0","Celsius","-","-","-","-","217.0","Celsius","-","-","","-",""
"N#C[BH2-]C#N.CN1C=[N+](CC=C)C=N1","-","-","AUTO_986","-","A139518","16718320","-","-","-","-","217.0","Celsius","-","-","-","-","217.0","Celsius","-","-","","-",""
"[Br-].FCC[N+]1=CC=CN=C1","-","-","AUTO_988","-","A132545","-","-","-","-","-","218.0","Celsius","-","-","-","-","218.0","Celsius","-","-","","-",""
"COS([O-])(=O)=O.CN1C=[N+](C)C(C#N)=C1C#N","-","-","AUTO_989","-","A132545","-","-","-","-","-","218.0","Celsius","-","-","-","-","218.0","Celsius","-","-","","-",""
"F[P-](F)(F)(F)(F)F.C[C@H](N)CN1C=C[N+](C)=C1","-","-","AUTO_990","-","A139517","16586524","-","","-","-","218.0","Celsius","-","-","-","-","218.0","Celsius","-","-","","-",""
"[O-]S(=O)(=O)C(F)(F)F.CCCCCCCC1=NOC(=N1)C2=CC=[N+](C)C=C2","-","-","AUTO_991","-","A132545","-","-","-","-","-","218.0","Celsius","-","-","-","-","218.0","Celsius","-","-","","-",""
"C[N+](C)(C)C.OCC(CO)(CO)NCCCS([O-])(=O)=O","-","-","AUTO_992","-","A132545","-","-","-","-","-","218.0","Celsius","-","-","-","-","218.0","Celsius","-","-","","-",""
"[Br-].CCCCCC[N+]1=CN(C)C=C1","-","-","AUTO_994","-","A132545","-","-","-","-","-","218.85","Celsius","-","-","-","-","218.85","Celsius","-","-","","-",""
"[Cl-].[NH3+]CC1=CC=CC=C1","-","-","AUTO_995","-","A139529","18188483","-","","-","-","219.0","Celsius","-","-","-","-","219.0","Celsius","-","-","","-",""
"O=N(=O)C1=NN=C([N-]1)N(=O)=O.CCCC[N+](CCCC)(CCCC)CCCC","-","-","AUTO_996","-","A139517","16586524","-","-","-","-","219.0","Celsius","-","-","-","-","219.0","Celsius","-","-","","-",""
"C[N+](C)(C)C.C[C@H](N)C([O-])=O","-","-","AUTO_997","-","A139517","16586524","-","-","-","-","219.0","Celsius","-","-","-","-","219.0","Celsius","-","-","","-",""
"O=N(=O)C1=C[N-]N=N1.CCCC[N+]1=CN(C)C=C1","-","-","AUTO_998","-","A139585","28856367","-","-","-","-","219.0","Celsius","-","-","-","-","219.0","Celsius","-","-","","-",""
"C[N+]1=CN(N)C=N1.N#CC1=N[N-]N=C1C#N","-","-","AUTO_999","-","A139581","27285664","-","-","-","-","219.0","Celsius","-","-","-","-","219.0","Celsius","-","-","","-",""
"FC(F)(F)S(=O)(=O)[N-]S(=O)(=O)C(F)(F)F.CCCC[S+]=C(N[C@@H](C)C1=CC=CC=C1)N[C@@H](C)C2=CC=CC=C2","-","-","AUTO_1000","-","A132545","-","-","-","-","-","219.1","Celsius","-","-","-","-","219.1","Celsius","-","-","","-",""
"NCC([O-])=O.CN1C=C[N+](CCO)=C1","-","-","AUTO_1002","-","A132545","-","-","-","-","-","219.95","Celsius","-","-","-","-","219.95","Celsius","-","-","","-",""
"[C-]#N.C1=CC=C(C=C1)[P+](C2=CC=CC=C2)(C3=CC=CC=C3)C4=CC=CC=C4","-","-","AUTO_1003","-","A132545","-","-","-","-","-","220.0","Celsius","-","-","-","-","220.0","Celsius","-","-","","-",""
"[Cl-].CC(C)C1=CC(I)=CC(C(C)C)=C1N2C=C[N+](=C2)C3=C(C=C(I)C=C3C(C)C)C(C)C","-","-","AUTO_1004","-","A99534","23360222","-","-","-","-","220.0","Celsius","-","-","-","-","220.0","Celsius","-","-","","-",""
"[Br-].CN1C=C[N+](CC(N)=O)=C1","-","-","AUTO_1005","-","A99534","23360222","-","-","-","-","220.0","Celsius","-","-","-","-","220.0","Celsius","-","-","","-",""
"[Br-].CCCCCCCCCCOC(=O)C[N+]1=CN(C)C=C1","-","-","AUTO_1007","-","A132545","-","-","-","-","-","220.0","Celsius","-","-","-","-","220.0","Celsius","-","-","","-",""
"[Br-].CCCCCCCCCCCCOC(=O)CN1C=C[N+](C)=C1","-","-","AUTO_1008","-","A132545","-","-","-","-","-","220.0","Celsius","-","-","-","-","220.0","Celsius","-","-","","-",""
"OC(=O)C1=CC=CC=C1C([O-])=O.CCCCCCCCN1C=C[N+](C)=C1","-","-","AUTO_1010","-","A139521","17082864","-","-","-","-","220.0","Celsius","-","-","-","-","220.0","Celsius","-","-","","-",""
"[O-]Cl(=O)(=O)=O.CN1C=C[N+](C)=C1C","-","-","AUTO_1011","-","A132545","-","-","-","-","-","220.0","Celsius","-","-","-","-","220.0","Celsius","-","-","","-",""
"[O-]N(=O)=O.C[N+]1(C)CCCC1","-","-","AUTO_1012","-","A132545","-","-","-","-","-","220.0","Celsius","-","-","-","-","220.0","Celsius","-","-","","-",""
"COC1=CC=CC=C1/C=C/C([O-])=O.CCCCCCCC[N+]1=CN(C)C=C1","-","-","AUTO_1013","-","A139538","19320507","-","-","-","-","220.0","Celsius","-","-","-","-","220.0","Celsius","-","-","","-",""
"F[B-](F)(F)F.CCCCCCSC[N+]1=CN(C)C=C1","-","-","AUTO_1015","-","A132545","-","-","","-","-","220.0","Celsius","-","-","-","-","220.0","Celsius","-","-","","-",""
"F[B-](F)(F)F.CCCCOCN1C=C[N+](COCCCC)=C1","-","-","AUTO_1016","-","A139561","24163003","-","","-","-","220.0","Celsius","-","-","-","-","220.0","Celsius","-","-","","-",""
"CCCCCCSC[N+]1=CN(C)C=C1.FC(F)(F)S(=O)(=O)[N-]S(=O)(=O)C(F)(F)F","-","-","AUTO_1017","-","A139570","25328142","-","-","-","-","220.0","Celsius","-","-","-","-","220.0","Celsius","-","-","","-",""
"FC(F)(F)S(=O)(=O)[N-]S(=O)(=O)C(F)(F)F.CC(C)[C@@H]1CC[C@@H](C)C[C@H]1OC[N+]2=CC=CC(=C2)N(C)C","-","-","AUTO_1018","-","A139570","25328142","-","-","-","-","220.0","Celsius","-","-","-","-","220.0","Celsius","-","-","","-",""
"[O-]Cl(=O)(=O)=O.N#CCN1C=[N+](CC#N)C=N1","-","-","AUTO_1020","-","A139550","21246695","-","-","-","-","220.0","Celsius","-","-","-","-","220.0","Celsius","-","-","","-",""
"[O-]S(=O)(=O)C(F)(F)F.CN(C)CC[N+]1=C(C)N(C)C=C1","-","-","AUTO_1021","-","A139528","18092313","-","-","-","-","220.0","Celsius","-","-","-","-","220.0","Celsius","-","-","","-",""
"N#C[BH2-]C#N.CCCC[N+]1=CN(C)N=C1","-","-","AUTO_1022","-","A139541","20039339","-","-","-","-","220.0","Celsius","-","-","-","-","220.0","Celsius","-","-","","-",""
"[Br-].CCCC[N+]1=CC(CN(C)C(C(O)C2=CC=CC=C2)C3=CC=CC=C3)=CC=C1","-","-","AUTO_1023","-","A132545","-","-","-","-","-","220.0","Celsius","-","-","-","-","220.0","Celsius","-","-","","-",""
"CCCCCC[N+]1=CN(C)C=C1.COC1=CC=CC=C1/C=C/C([O-])=O","-","-","AUTO_1024","-","A132545","-","-","-","-","-","220.0","Celsius","-","-","-","-","220.0","Celsius","-","-","","-",""
"CC(OC1=CC=C(Cl)C=C1Cl)C([O-])=O.CCCCCCCCCCCCCCCCCC[N+](C)(C)C","-","-","AUTO_1025","-","A139507","15252794","-","-","-","-","220.0","Celsius","-","-","-","-","220.0","Celsius","-","-","","-",""
"[S-]C#N.CC[N+](C)(CC)CC","-","-","AUTO_1026","-","A132545","-","-","-","-","-","221.0","Celsius","-","-","-","-","221.0","Celsius","-","-","","-",""
"[I-].CCCCCCCC1=NC(=NO1)C2=CC=[N+](C)C=C2","-","-","AUTO_1028","-","A132545","-","-","-","-","-","221.0","Celsius","-","-","-","-","221.0","Celsius","-","-","","-",""
"O=N(=O)C1=NC(=C[N-]1)N(=O)=O.CCCC[N+](CCCC)(CCCC)CCCC","-","-","AUTO_1029","-","A139517","16586524","-","-","-","-","221.0","Celsius","-","-","-","-","221.0","Celsius","-","-","","-",""
"[O-]Cl(=O)(=O)=O.CN1C=C[N+](CC#C)=C1","-","-","AUTO_1030","-","A132545","-","-","-","-","-","221.0","Celsius","-","-","-","-","221.0","Celsius","-","-","","-",""
"[Br-].CCCC[N+]1=CC(CN(C)[C@@H](C)[C@@H](O)C2=CC=CC=C2)=CC=C1","-","-","AUTO_1031","-","A132545","-","-","-","-","-","221.0","Celsius","-","-","-","-","221.0","Celsius","-","-","","-",""
"OCCN1CCN(CCCS([O-])(=O)=O)CC1.CCCC[N+](CCCC)(CCCC)CCCC","-","-","AUTO_1032","-","A139561","24163003","-","-","-","-","221.0","Celsius","-","-","-","-","221.0","Celsius","-","-","","-",""
"CC(OC1=CC=C(Cl)C=C1Cl)C([O-])=O.CCCCCCCCCCCCCC[N+](C)(C)C","-","-","AUTO_1033","-","A132545","-","-","-","-","-","221.0","Celsius","-","-","-","-","221.0","Celsius","-","-","","-",""
"[O-]S(=O)(=O)C(F)(F)F.CCCCCCCCCCCC1=NOC(=N1)C2=CC=[N+](C)C=C2","-","-","AUTO_1034","-","A139517","16586524","-","-","-","-","222.0","Celsius","-","-","-","-","222.0","Celsius","-","-","","-",""
"O=N(=O)C1=C(N=C[N-]1)N(=O)=O.CCCC[N+](CCCC)(CCCC)CCCC","-","-","AUTO_1035","-","A139517","16586524","-","-","-","-","222.0","Celsius","-","-","-","-","222.0","Celsius","-","-","","-",""
"C[N+](C)(C)C.O=N(=O)C1=NC(=C[N-]1)N(=O)=O","-","-","AUTO_1036","-","A132545","-","-","-","-","-","222.0","Celsius","-","-","-","-","222.0","Celsius","-","-","","-",""
"N#C[BH2-]C#N.CCCC[N+](C)(C)N","-","-","AUTO_1037","-","A139550","21246695","-","-","-","-","222.0","Celsius","-","-","-","-","222.0","Celsius","-","-","","-",""
"CC[N+]1=CN(C)C=C1.N#CC1(O[B-]2(OC1(C#N)C#N)OC(C#N)(C#N)C(O2)(C#N)C#N)C#N","-","-","AUTO_1039","-","A132545","-","-","-","-","-","222.3","Celsius","-","-","-","-","222.3","Celsius","-","-","","-",""
"CC([O-])=O.CN1C=C[N+](CC=C)=C1","-","-","AUTO_1041","-","A132545","-","-","-","-","-","223.0","Celsius","-","-","-","-","223.0","Celsius","-","-","","-",""
"[I-].C[N+]1=CN=CC=C1","-","-","AUTO_1042","-","A132545","-","-","-","-","-","223.0","Celsius","-","-","-","-","223.0","Celsius","-","-","","-",""
"C[N+](C)(C)C.CC(C)[C@H](N)C([O-])=O","-","-","AUTO_1043","-","A139529","18188483","-","-","-","-","223.0","Celsius","-","-","-","-","223.0","Celsius","-","-","","-",""
"[C@H](C)(O)[C@H](N)C([O-])=O.CCCC[P+](CCCC)(CCCC)CCCC","-","-","AUTO_1044","-","A132545","-","-","-","-","-","223.0","Celsius","-","-","-","-","223.0","Celsius","-","-","","-",""
"[O-]S(=O)(=O)NC1CCCCC1.CCCCCCCCCCCC[N+]1=CC=CC=C1","-","-","AUTO_1047","-","A132545","-","-","-","-","-","223.0","Celsius","-","-","-","-","223.0","Celsius","-","-","","-",""
"[Br-].CCCC[N+]1=CC(CN(C)[C@H](CO)C(C)C)=CC=C1","-","-","AUTO_1048","-","A139561","24163003","-","-","-","-","223.0","Celsius","-","-","-","-","223.0","Celsius","-","-","","-",""
"CC1=CN=C[N-]1.C[N+](C)(C)CCO","-","-","AUTO_1049","-","A139518","16718320","-","-","-","-","223.0","Celsius","-","-","-","-","223.0","Celsius","-","-","","-",""
"OCC[NH2+]CCO.[O-]C(=O)C1=CC=CC=C1N=NC2=CC=C(O)C=C2","-","-","AUTO_1050","-","A139592","32006830","-","","-","-","223.8","Celsius","-","-","-","-","223.8","Celsius","-","-","","-",""
"[O-]C(=O)[C@@H]1CCCN1.CCCCCCCC[N+]1=CN(C)C=C1","-","-","AUTO_1051","-","A139574","25965417","-","-","-","-","223.84","Celsius","-","-","-","-","223.84","Celsius","-","-","","-",""
"C[C@H](N)C([O-])=O.CN1C=C[N+](CCO)=C1","-","-","AUTO_1052","-","A132545","-","-","-","-","-","223.95","Celsius","-","-","-","-","223.95","Celsius","-","-","","-",""
"[Br-].CC[N+](CC)(CC)CCOC","-","-","AUTO_1053","-","A132545","-","-","-","-","-","224.0","Celsius","-","-","-","-","224.0","Celsius","-","-","","-",""
"[C@H](N)(CC(N)=O)C([O-])=O.CCCC[P+](CCCC)(CCCC)CCCC","-","-","AUTO_1056","-","A139510","15584076","-","-","-","-","224.0","Celsius","-","-","-","-","224.0","Celsius","-","-","","-",""
"CC[N+](CC)(CC)CC.OCC(CO)(CO)NCCCS([O-])(=O)=O","-","-","AUTO_1057","-","A132545","-","-","-","-","-","224.0","Celsius","-","-","-","-","224.0","Celsius","-","-","","-",""
"CCCC[N+]1=CN(C)C=C1.[BH2-](N1C=CN=C1)N2C=CN=C2","-","-","AUTO_1058","-","A139518","16718320","-","-","-","-","224.0","Celsius","-","-","-","-","224.0","Celsius","-","-","","-",""
"[Br-].CCCC[N+]1=CC=C(N(C)C)C(C)=C1","-","-","AUTO_1061","-","A132545","-","-","-","-","-","224.85","Celsius","-","-","-","-","224.85","Celsius","-","-","","-",""
"[Cl-].CCCC[N+]1=CC=C(C)C=C1","-","-","AUTO_1062","-","A132545","-","-","-","-","-","225.0","Celsius","-","-","-","-","225.0","Celsius","-","-","","-",""
"CC([O-])=O.CCCCCCCCCCN1C=C[N+](CCCCCCCCCC)=C1","-","-","AUTO_1064","-","A132545","-","-","-","-","-","225.0","Celsius","-","-","-","-","225.0","Celsius","-","-","","-",""
"CCCCN1C=C[N+](C)=C1.FC(F)(F)C(F)(F)C(F)(F)C(F)(F)C(F)(F)C(F)(F)C1=CC=C(C=C1)[B-](C2=CC=C(C=C2)C(F)(F)C(F)(F)C(F)(F)C(F)(F)C(F)(F)C(F)(F)F)(C3=CC=C(C=C3)C(F)(F)C(F)(F)C(F)(F)C(F)(F)C(F)(F)C(F)(F)F)C4=CC=C(C=C4)C(F)(F)C(F)(F)C(F)(F)C(F)(F)C(F)(F)C(F)(F)F","-","-","AUTO_1065","-","A139517","16586524","-","-","-","-","225.0","Celsius","-","-","-","-","225.0","Celsius","-","-","","-",""
"C[N+](C)(C)C.O=N(=O)C1=C(N=C[N-]1)N(=O)=O","-","-","AUTO_1067","-","A132545","-","-","-","-","-","225.0","Celsius","-","-","-","-","225.0","Celsius","-","-","","-",""
"[O-]Cl(=O)(=O)=O.C=CC[N+]1=CN(C=C)C=C1","-","-","AUTO_1068","-","A132545","-","-","-","-","-","225.0","Celsius","-","-","-","-","225.0","Celsius","-","-","","-",""
"[O-]Cl(=O)(=O)=O.C=CN1C=C[N+](CC#N)=C1","-","-","AUTO_1069","-","A139561","24163003","-","-","-","-","225.0","Celsius","-","-","-","-","225.0","Celsius","-","-","","-",""
"[Br-].CCCC[N+]1=CC(CN(C)[C@H](CO)CC2=CC=CC=C2)=CC=C1","-","-","AUTO_1071","-","A139570","25328142","-","-","-","-","225.0","Celsius","-","-","-","-","225.0","Celsius","-","-","","-",""
"CCCC[N+]1=CN(C)C=C1.COC1=CC=CC=C1/C=C/C([O-])=O","-","-","AUTO_1072","-","A132545","-","-","-","-","-","225.0","Celsius","-","-","-","-","225.0","Celsius","-","-","","-",""
"[O-]S(=O)(=O)C(F)(F)F.CO[C@@H]1[C@@H](C[N+]2=CC=CC=C2)O[C@@H](OC3=CC=CC=C3)[C@H](OC)[C@H]1OC","-","-","AUTO_1074","-","A132545","-","-","-","-","-","225.0","Celsius","-","-","-","-","225.0","Celsius","-","-","","-",""
"[NH2+]1C=CN=C1.[O-]C(=O)C1=CC=CC=C1N=NC2=CC=C(O)C=C2","-","-","AUTO_1075","-","A139592","32006830","-","","-","-","225.5","Celsius","-","-","-","-","225.5","Celsius","-","-","","-",""
"[Cl-].CCCCCCCCCCCC[N+](C)(C)CCO","-","-","AUTO_1076","-","A132545","-","-","-","-","-","226.0","Celsius","-","-","-","-","226.0","Celsius","-","-","","-",""
"[Br-].C(C1=CC=CC=C1)[N+]2=CC=C(C=C2)C3=CC=NC=C3","-","-","AUTO_1077","-","A139525","17665379","-","-","-","-","226.0","Celsius","-","-","-","-","226.0","Celsius","-","-","","-",""
"[S-]C#N.CCCCCCCCN1C=C[N+](C)=C1","-","-","AUTO_1078","-","A132545","-","-","-","-","-","226.0","Celsius","-","-","-","-","226.0","Celsius","-","-","","-",""
"[Br-].C[C@H](N)CN1C=C[N+](C)=C1","-","-","AUTO_1080","-","A139590","29745392","-","-","-","-","226.0","Celsius","-","-","-","-","226.0","Celsius","-","-","","-",""
"F[B-](F)(F)C(F)(F)F.COCC[N+]1(C)CCOC1","-","-","AUTO_1081","-","A139600","33354944","-","-","-","-","226.0","Celsius","-","-","-","-","226.0","Celsius","-","-","","-",""
"FC(F)(F)S(=O)(=O)[N-]S(=O)(=O)C(F)(F)F.CCCC[N+]1=CC(CN(C)[C@H](CO)C(C)C)=CC=C1","-","-","AUTO_1082","-","A139561","24163003","-","-","-","-","226.0","Celsius","-","-","-","-","226.0","Celsius","-","-","","-",""
"CCCCCCCCCC[S+]1CCCC1.C1=CC=C(C=C1)[B-](C2=CC=CC=C2)(C3=CC=CC=C3)C4=CC=CC=C4","-","-","AUTO_1083","-","A139515","16389616","-","-","-","-","226.0","Celsius","-","-","-","-","226.0","Celsius","-","-","","-",""
"CC[NH+](CC)CC.[O-]C(=O)C(=CC1=CC=C(O)C=C1)C#N","-","-","AUTO_1084","-","A139592","32006830","-","","-","-","226.2","Celsius","-","-","-","-","226.2","Celsius","-","-","","-",""
"C[Si](C)(C)CC1=C[N-]N=N1.CCCC[P+](CCCC)(CCCC)CCCC","-","-","AUTO_1085","-","A132545","-","-","-","-","-","227.0","Celsius","-","-","-","-","227.0","Celsius","-","-","","-",""
"OC(=O)/C=C\C([O-])=O.CCCC[N+](CC)(CC)CC","-","-","AUTO_1088","-","A132545","-","-","-","-","-","227.0","Celsius","-","-","-","-","227.0","Celsius","-","-","","-",""
"CC([O-])=O.CCCCCCCCCCCCN1C=C[N+](CCCCCCCCCCCC)=C1","-","-","AUTO_1089","-","A132545","-","-","-","-","-","227.0","Celsius","-","-","-","-","227.0","Celsius","-","-","","-",""
"OC(=O)C([O-])=O.CCCCCCCCN1C=C[N+](CCCCCCCC)=C1","-","-","AUTO_1090","-","A132545","-","-","-","-","-","227.0","Celsius","-","-","-","-","227.0","Celsius","-","-","","-",""
"[NH3+]N1C=NN=C1.[O-]C1=C(C=C(C=C1N(=O)=O)N(=O)=O)N(=O)=O","-","-","AUTO_1091","-","A132545","-","-","","-","-","228.0","Celsius","-","-","-","-","228.0","Celsius","-","-","","-",""
"N#C[BH2-]N1C=NN=N1.CN1C=C[N+](CC=C)=C1","-","-","AUTO_1092","-","A99534","23360222","-","-","-","-","228.0","Celsius","-","-","-","-","228.0","Celsius","-","-","","-",""
"N#C[N-]C#N.CCCCCCCC[N+]1=CC=CC=C1C","-","-","AUTO_1093","-","A132545","-","-","-","-","-","228.0","Celsius","-","-","-","-","228.0","Celsius","-","-","","-",""
"F[P-](F)(F)(F)(F)F.CCCCCCCC[P+](CCCCCCCC)(CCCCCCCC)CCC(F)(F)C(F)(F)C(F)(F)C(F)(F)F","-","-","AUTO_1094","-","A132545","-","-","-","-","-","228.0","Celsius","-","-","-","-","228.0","Celsius","-","-","","-",""
"CCCC[N+]1(C[C@@H]2CCCN2)CCCC1.FC(F)(F)S(=O)(=O)[N-]S(=O)(=O)C(F)(F)F","-","-","AUTO_1095","-","A132545","-","-","-","-","-","228.0","Celsius","-","-","-","-","228.0","Celsius","-","-","","-",""
"[Br-].CCCCCCCCCCCCCCOC(=O)C[N+]1=CN(C)C=C1","-","-","AUTO_1097","-","A139600","33354944","-","-","-","-","228.0","Celsius","-","-","-","-","228.0","Celsius","-","-","","-",""
"C[N+](C)(C)C.[O-]S(=O)(=O)CCCN1CCOCC1","-","-","AUTO_1099","-","A139600","33354944","-","-","-","-","228.0","Celsius","-","-","-","-","228.0","Celsius","-","-","","-",""
"CC[N+](CC)(CC)CC.OCCN1CCN(CCCS([O-])(=O)=O)CC1","-","-","AUTO_1100","-","A139600","33354944","-","-","-","-","228.0","Celsius","-","-","-","-","228.0","Celsius","-","-","","-",""
"CC(=O)NCC([O-])=O.CCCCCCCC[N+]1(C)CCOCC1","-","-","AUTO_1101","-","A132545","-","-","-","-","-","228.0","Celsius","-","-","-","-","228.0","Celsius","-","-","","-",""
"CC([O-])=O.CCCCCCCCCCCCCCCCN1C=C[N+](CCCCCCCCCCCCCCCC)=C1","-","-","AUTO_1102","-","A132545","-","-","-","-","-","228.0","Celsius","-","-","-","-","228.0","Celsius","-","-","","-",""
"CCCCCC[S+]1CCCC1.C1=CC=C(C=C1)[B-](C2=CC=CC=C2)(C3=CC=CC=C3)C4=CC=CC=C4","-","-","AUTO_1103","-","A132545","-","-","-","-","-","228.0","Celsius","-","-","-","-","228.0","Celsius","-","-","","-",""
"CCCCCCC[S+]1CCCC1.C1=CC=C(C=C1)[B-](C2=CC=CC=C2)(C3=CC=CC=C3)C4=CC=CC=C4","-","-","AUTO_1104","-","A132545","-","-","-","-","-","228.0","Celsius","-","-","-","-","228.0","Celsius","-","-","","-",""
"CCCCCCCCC[S+]1CCCC1.C1=CC=C(C=C1)[B-](C2=CC=CC=C2)(C3=CC=CC=C3)C4=CC=CC=C4","-","-","AUTO_1105","-","A132545","-","-","-","-","-","228.0","Celsius","-","-","-","-","228.0","Celsius","-","-","","-",""
"[Br-].N#CCCN1C=C[N+](CC#N)=C1","-","-","AUTO_1106","-","A132545","-","-","-","-","-","228.5","Celsius","-","-","-","-","228.5","Celsius","-","-","","-",""
"[O-]Cl(=O)(=O)=O.FC(F)(F)CC[N+]1=CC=NC=C1","-","-","AUTO_1107","-","A132545","-","-","-","-","-","229.0","Celsius","-","-","-","-","229.0","Celsius","-","-","","-",""
"[O-]S(=O)(=O)C(F)(F)F.CCN1C=[N+](C)C(C#N)=C1C#N","-","-","AUTO_1108","-","A132545","-","-","-","-","-","229.0","Celsius","-","-","-","-","229.0","Celsius","-","-","","-",""
"CCCCN1C=C[N+](C)=C1.ClC1=NC(C#N)=C([N-]1)C#N","-","-","AUTO_1109","-","A132545","-","-","-","-","-","229.0","Celsius","-","-","-","-","229.0","Celsius","-","-","","-",""