"SMILES","CASRN","EXTERNALID","N","NAME","ARTICLEID","PUBMEDID","PAGE","TABLE","Melting Point","UNIT {Melting Point}","Decomposition","UNIT {Decomposition}","Glass-transition temperature (Tg)","UNIT {Glass-transition temperature (Tg)}","Melting Point {measured, converted}","UNIT {Melting Point}","Decomposition {measured, converted}","UNIT {Decomposition}","Glass-transition temperature (Tg) {measured, converted}","UNIT {Glass-transition temperature (Tg)}","weight loss","UNIT {weight loss}","Solvent"
"[I-].CN1C=C[N+](CCC(F)(F)C(F)(F)C(F)(F)C(F)(F)C(F)(F)C(F)(F)C(F)(F)C(F)(F)F)=C1","-","-","AUTO_1430","-","A139517","16586524","-","-","-","-","258.0","Celsius","-","-","-","-","258.0","Celsius","-","-","","-",""
"CN1C=C([N+](C)=C1)N(=O)=O.FC(F)(F)S(=O)(=O)[N-]S(=O)(=O)C(F)(F)F","-","-","AUTO_1431","-","A139579","26885778","-","-","-","-","258.0","Celsius","-","-","-","-","258.0","Celsius","-","-","","-",""
"FC(F)(F)S(=O)(=O)[N-]S(=O)(=O)C(F)(F)F.CCCC[N+]1=CC(CN(C)C(C(O)C2=CC=CC=C2)C3=CC=CC=C3)=CC=C1","-","-","AUTO_1433","-","A139567","24888334","-","-","-","-","258.0","Celsius","-","-","-","-","258.0","Celsius","-","-","","-",""
"CCCCN1C=C[N+](C)=C1.NC1=NC(C#N)=C([N-]1)C#N","-","-","AUTO_1434","-","A139590","29745392","-","-","-","-","258.0","Celsius","-","-","-","-","258.0","Celsius","-","-","","-",""
"[O-]S(O)(=O)=O.CC[NH+](CC)CC1=C(O)C=CC(O)=C1","-","-","AUTO_1435","-","A140250","-","-","","-","-","258.0","Celsius","-","-","-","-","258.0","Celsius","-","-","","-",""
"FC(F)(F)C1=NC(C#N)=C([N-]1)C#N.CCCCCCCCN1C=C[N+](C)=C1","-","-","AUTO_1436","-","A139561","24163003","-","-","-","-","258.0","Celsius","-","-","-","-","258.0","Celsius","-","-","","-",""
"N[C@@H](CC1=C[N-]C=N1)C([O-])=O.CCCCCCCCCCCCCC[P+](CCCCCC)(CCCCCC)CCCCCC","-","-","AUTO_1437","-","A140250","-","-","-","-","-","258.0","Celsius","-","-","-","-","258.0","Celsius","-","-","","-",""
"[NH3+]CCO.[O-]N(=O)=O","-","-","AUTO_1438","-","A140250","-","-","","-","-","259.0","Celsius","-","-","-","-","259.0","Celsius","-","-","","-",""
"CC([O-])=O.CCCCC(CC)CN1C=C[N+](CC(CC)CCCC)=C1","-","-","AUTO_1441","-","A140250","-","-","-","-","-","259.0","Celsius","-","-","-","-","259.0","Celsius","-","-","","-",""
"F[P-](F)(F)(F)(F)F.CCCC[N+]1=CN(CN2C=CC=N2)C=C1","-","-","AUTO_1442","-","A140250","-","-","","-","-","259.0","Celsius","-","-","-","-","259.0","Celsius","-","-","","-",""
"N#C[BH2-]C#N.C[N+]1(CC=C)CCCC1","-","-","AUTO_1443","-","A139550","21246695","-","-","-","-","259.0","Celsius","-","-","-","-","259.0","Celsius","-","-","","-",""
"C[P+](C)(C)CC=C.FS(=O)(=O)[N-]S(F)(=O)=O","-","-","AUTO_1444","-","A140250","-","-","-","-","-","259.0","Celsius","-","-","-","-","259.0","Celsius","-","-","","-",""
"CCCCCCC(OC1=CC(OC(CCCCCC)C([O-])=O)=CC=C1)C([O-])=O.CCCCCCCCCCCCCC[P+](CCCCCC)(CCCCCC)CCCCCC","-","-","AUTO_1447","-","A139590","29745392","-","-","-","-","259.0","Celsius","-","-","-","-","259.0","Celsius","-","-","","-",""
"[Br-].CCCCCCCCCCCC[N+]1=C(C)N(CCCCCCCCC)C=C1","-","-","AUTO_1448","-","A140250","-","-","-","-","-","259.0","Celsius","-","-","-","-","259.0","Celsius","-","-","","-",""
"CCN1C=C[N+](C)=C1.CCOP([O-])(=O)OCC","-","-","AUTO_1450","-","A140250","-","-","-","-","-","260.0","Celsius","-","-","-","-","260.0","Celsius","-","-","","-",""
"[Cl-].C[N+]1(C)CCCC1","-","-","AUTO_1453","-","A140250","-","-","-","-","-","260.0","Celsius","-","-","-","-","260.0","Celsius","-","-","","-",""
"CC([O-])=O.CCCCN1C=C[N+](CCCC)=C1","-","-","AUTO_1454","-","A139519","16855692","-","-","-","-","260.0","Celsius","-","-","-","-","260.0","Celsius","-","-","","-",""
"[Cl-].CCCCCCCCCCCCCCN1C=C[N+](CCCCCCCCCCCCCC)=C1","-","-","AUTO_1455","-","A140250","-","-","-","-","-","260.0","Celsius","-","-","-","-","260.0","Celsius","-","-","","-",""
"[Br-].CCCCC[N+]1=CN(CC=C)C=C1","-","-","AUTO_1458","-","A139517","16586524","-","-","-","-","260.0","Celsius","-","-","-","-","260.0","Celsius","-","-","","-",""
"[I-].CCCC[N+](CCCC)(CCCC)CCC(F)(F)C(F)(F)C(F)(F)C(F)(F)C(F)(F)C(F)(F)C(F)(F)C(F)(F)F","-","-","AUTO_1460","-","A140250","-","-","-","-","-","260.0","Celsius","-","-","-","-","260.0","Celsius","-","-","","-",""
"[O-]S(=O)(=O)C(F)(F)F.CCN1C=C([N+](C)=C1)N(=O)=O","-","-","AUTO_1461","-","A140250","-","-","-","-","-","260.0","Celsius","-","-","-","-","260.0","Celsius","-","-","","-",""
"CCCCN1C=C[N+](C)=C1.COC(=O)[C@H](C)[N-]S(=O)(=O)C(F)(F)F","-","-","AUTO_1462","-","A139567","24888334","-","-","-","-","260.0","Celsius","-","-","-","-","260.0","Celsius","-","-","","-",""
"CCCCN1C=C[N+](C)=C1.CCCCCCCCC1=NC(C#N)=C([N-]1)C#N","-","-","AUTO_1464","-","A139567","24888334","-","-","-","-","260.0","Celsius","-","-","-","-","260.0","Celsius","-","-","","-",""
"CCCCCCCCN1C=C[N+](C)=C1.CCCCCCCCCC1=NC(C#N)=C([N-]1)C#N","-","-","AUTO_1465","-","A140250","-","-","-","-","-","260.0","Celsius","-","-","-","-","260.0","Celsius","-","-","","-",""
"FC(F)(F)S(=O)(=O)[N-]C#N.CCCCCC[P+](N(C)C)(N(C)C)N(C)C","-","-","AUTO_1467","-","A140250","-","-","-","-","-","260.0","Celsius","-","-","-","-","260.0","Celsius","-","-","","-",""
"[Cl-].CN1C=C[N+](CC(O)=O)=C1","-","-","AUTO_1468","-","A140250","-","-","-","-","-","260.05","Celsius","-","-","-","-","260.05","Celsius","-","-","","-",""
"FC(F)(F)S(=O)(=O)[N-]S(=O)(=O)C(F)(F)F.CC(C)(C)OC(=O)[C@@H]([NH3+])CC1=CC=CC=C1","-","-","AUTO_1469","-","A140250","-","-","","-","-","260.06","Celsius","-","-","-","-","260.06","Celsius","-","-","","-",""
"F[B-](F)(F)F.C[C@H](N)CN1C=C[N+](C)=C1","-","-","AUTO_1470","-","A140250","-","-","","-","-","261.0","Celsius","-","-","-","-","261.0","Celsius","-","-","","-",""
"CCCC[N+](CC)(CC)CC.OC(=O)C1=C(C=CC=C1)C([O-])=O","-","-","AUTO_1471","-","A140250","-","-","-","-","-","261.0","Celsius","-","-","-","-","261.0","Celsius","-","-","","-",""
"[O-]Cl(=O)(=O)=O.FCC[N+]1=CC=CC=N1","-","-","AUTO_1473","-","A140250","-","-","-","-","-","262.0","Celsius","-","-","-","-","262.0","Celsius","-","-","","-",""
"OC(=O)CCCC([O-])=O.CCCC[N+](CC)(CC)CC","-","-","AUTO_1474","-","A140250","-","-","-","-","-","262.0","Celsius","-","-","-","-","262.0","Celsius","-","-","","-",""
"COC[P+](C)(C)C.FS(=O)(=O)[N-]S(F)(=O)=O","-","-","AUTO_1475","-","A140250","-","-","-","-","-","262.0","Celsius","-","-","-","-","262.0","Celsius","-","-","","-",""
"[Br-].CCCCCCCCCCCC[N+]1=C(C)NC=C1","-","-","AUTO_1477","-","A139511","15762697","-","-","-","-","262.0","Celsius","-","-","-","-","262.0","Celsius","-","-","","-",""
"[Br-].CCCCCCCC[N+]1(C)CCCCC1","-","-","AUTO_1478","-","A140250","-","-","-","-","-","262.29","Celsius","-","-","-","-","262.29","Celsius","-","-","","-",""
"CCCC[P+](CCCC)(CCCC)CCCC.FC(F)(F)C(F)(F)C(F)(F)C(F)(F)C(F)(F)C(F)(F)CCOCC1=C[N-]N=N1","-","-","AUTO_1481","-","A140250","-","-","-","-","-","263.0","Celsius","-","-","-","-","263.0","Celsius","-","-","","-",""
"[Br-].CCCCCCCCCCCCN1C=C[N+](CCCCCCCCCCCC)=C1C","-","-","AUTO_1484","-","A140250","-","-","-","-","-","263.0","Celsius","-","-","-","-","263.0","Celsius","-","-","","-",""
"N#C[N-]C#N.CCCC[N+](C)(C)N","-","-","AUTO_1486","-","A139542","20135648","-","-","-","-","263.3","Celsius","-","-","-","-","263.3","Celsius","-","-","","-",""
"[Br-].CN1C=C[N+](CC=C)=C1","-","-","AUTO_1487","-","A140250","-","-","-","-","-","264.0","Celsius","-","-","-","-","264.0","Celsius","-","-","","-",""
"[Cl-].CCCCCCCCCCCCCCCC[N+]1=CN(C)C=C1","-","-","AUTO_1488","-","A139519","16855692","-","-","-","-","264.0","Celsius","-","-","-","-","264.0","Celsius","-","-","","-",""
"[Br-].COCC[N+]1(C)CCCC1","-","-","AUTO_1489","-","A140250","-","-","-","-","-","264.0","Celsius","-","-","-","-","264.0","Celsius","-","-","","-",""
"[Br-].CCCCCCCCCCCC[N+]1=CN(CCOC2=CC=C(C=C2)/N=N/C3=CC=C(C)C=C3)C=C1","-","-","AUTO_1490","-","A139590","29745392","-","-","-","-","264.0","Celsius","-","-","-","-","264.0","Celsius","-","-","","-",""
"CCCC[P+](CCCC)(CCCC)CCCC.COC(=O)[C@H](CC(C)C)[N-]S(=O)(=O)C(F)(F)F","-","-","AUTO_1493","-","A140250","-","-","-","-","-","264.0","Celsius","-","-","-","-","264.0","Celsius","-","-","","-",""
"[Br-].CCCCCCCCCCCC[N+]1=C(C)N(CCCCCCCCCCC)C=C1","-","-","AUTO_1495","-","A139515","16389616","-","-","-","-","264.0","Celsius","-","-","-","-","264.0","Celsius","-","-","","-",""
"[Cl-].CCCCCCCCCCCCN1C=C[N+](CCCCCCCCCCCC)=C1","-","-","AUTO_1498","-","A140250","-","-","-","-","-","265.0","Celsius","-","-","-","-","265.0","Celsius","-","-","","-",""
"OC(=O)/C=C/C([O-])=O.CCCC[P+](CCCC)(CCCC)CCCC","-","-","AUTO_1500","-","A139524","17639151","-","-","-","-","265.0","Celsius","-","-","-","-","265.0","Celsius","-","-","","-",""
"FC(F)(F)S(=O)(=O)[N-]S(=O)(=O)C(F)(F)F.CCCC[N+]1=CC(CN(C)[C@H](CO)CC2=CC=CC=C2)=CC=C1","-","-","AUTO_1502","-","A139579","26885778","-","-","-","-","265.0","Celsius","-","-","-","-","265.0","Celsius","-","-","","-",""
"CCCCN1C=C[N+](C)=C1.FC(F)(F)C(F)(F)C1=NC(C#N)=C([N-]1)C#N","-","-","AUTO_1503","-","A139561","24163003","-","-","-","-","265.0","Celsius","-","-","-","-","265.0","Celsius","-","-","","-",""
"[NH3+][C@@H](CC1=CC=CC=C1)C(=O)OCC2=CC=CC=C2.FC(F)(F)C(F)(F)S(=O)(=O)[N-]S(=O)(=O)C(F)(F)C(F)(F)F","-","-","AUTO_1506","-","A140250","-","-","","-","-","265.79","Celsius","-","-","-","-","265.79","Celsius","-","-","","-",""
"COC(=O)[C@@H]([NH3+])CC1=CC=CC=C1.FC(F)(F)C(F)(F)S(=O)(=O)[N-]S(=O)(=O)C(F)(F)C(F)(F)F","-","-","AUTO_1507","-","A140250","-","-","","-","-","265.85","Celsius","-","-","-","-","265.85","Celsius","-","-","","-",""
"COP([O-])(=O)OC.CN1CCC[N+]2=C1CCC2","-","-","AUTO_1508","-","A140250","-","-","-","-","-","266.0","Celsius","-","-","-","-","266.0","Celsius","-","-","","-",""
"CC([O-])=O.CCCCCCCCN1C=C[N+](CCCCCCCC)=C1","-","-","AUTO_1510","-","A140250","-","-","-","-","-","266.0","Celsius","-","-","-","-","266.0","Celsius","-","-","","-",""
"N#C[BH2-]C#N.CN1C=C[N+](CC=C)=C1","-","-","AUTO_1512","-","A140250","-","-","-","-","-","266.0","Celsius","-","-","-","-","266.0","Celsius","-","-","","-",""
"CCN1C=C[N+](C)=C1.N1N=NN=C1C2=NN=N[N-]2","-","-","AUTO_1513","-","A140250","-","-","-","-","-","266.0","Celsius","-","-","-","-","266.0","Celsius","-","-","","-",""
"CCCCCCCCN1C=C[N+](C)=C1.N#CC1=C(N=C([N-]1)C2=CC=CC=C2)C#N","-","-","AUTO_1515","-","A140250","-","-","-","-","-","266.0","Celsius","-","-","-","-","266.0","Celsius","-","-","","-",""
"[Br-].CCCCCCCCCCCC[N+]1=C(C)N(CCCCCCCC)C=C1","-","-","AUTO_1517","-","A140250","-","-","-","-","-","266.0","Celsius","-","-","-","-","266.0","Celsius","-","-","","-",""
"[Br-].CCCCCCCCCCCC[N+]1=C(C)N(CCCCCCCCCC)C=C1","-","-","AUTO_1518","-","A139567","24888334","-","-","-","-","266.0","Celsius","-","-","-","-","266.0","Celsius","-","-","","-",""
"[Br-].CCCCCCCCCCCC[N+]1=C(C)N(CC)C=C1","-","-","AUTO_1519","-","A139550","21246695","-","-","-","-","266.0","Celsius","-","-","-","-","266.0","Celsius","-","-","","-",""
"OCC[NH2+]CCO.[O-]C(=O)C(=CC1=CC=C(O)C=C1)C#N","-","-","AUTO_1520","-","A139592","32006830","-","","-","-","266.6","Celsius","-","-","-","-","266.6","Celsius","-","-","","-",""
"[Cl-].[C@H]([NH3+])(CCCCN)C(O)=O","-","-","AUTO_1521","-","A140250","-","-","","-","-","267.0","Celsius","-","-","-","-","267.0","Celsius","-","-","","-",""
"[BH3-]C#N.CCCC[N+]1=CN(C)C=C1","-","-","AUTO_1523","-","A140250","-","-","-","-","-","267.0","Celsius","-","-","-","-","267.0","Celsius","-","-","","-",""
"[Br-].CC(C)C[C@H](N)CN1C=C[N+](C)=C1","-","-","AUTO_1525","-","A140250","-","-","-","-","-","267.0","Celsius","-","-","-","-","267.0","Celsius","-","-","","-",""
"FC(F)(F)S(=O)(=O)[N-]S(=O)(=O)C(F)(F)F.FC(F)(F)C(F)(F)C(F)(F)C(F)(F)CC[N+]1=CN(CN2C=CC=N2)C=C1","-","-","AUTO_1526","-","A140250","-","-","-","-","-","267.0","Celsius","-","-","-","-","267.0","Celsius","-","-","","-",""
"[Br-].CCCCCCCCCC[N+]1=CN(CCOC2=CC=C(C=C2)/N=N/C3=CC=C(C)C=C3)C=C1","-","-","AUTO_1528","-","A140250","-","-","-","-","-","267.0","Celsius","-","-","-","-","267.0","Celsius","-","-","","-",""
"[Br-].CCCCCCCCCC[N+]1=CN(CCCCCCOC2=CC=C(C=C2)N=NC3=CC=C(C)C=C3)C=C1","-","-","AUTO_1529","-","A139565","24737218","-","-","-","-","267.0","Celsius","-","-","-","-","267.0","Celsius","-","-","","-",""
"[Br-].CCCCCCCCN1C=C[N+](CC2=CC=CC3=CC=CC=C23)=C1","-","-","AUTO_1530","-","A140250","-","-","-","-","-","267.0","Celsius","-","-","-","-","267.0","Celsius","-","-","","-",""
"CCCC[NH2+]CCO.CCCCCCCCCCCCCCCC([O-])=O","-","-","AUTO_1532","-","A140250","-","-","","-","-","267.0","Celsius","-","-","-","-","267.0","Celsius","-","-","","-",""
"N#C[N-]C#N.CC[N+](C)(C)N","-","-","AUTO_1533","-","A139542","20135648","-","-","-","-","267.1","Celsius","-","-","-","-","267.1","Celsius","-","-","","-",""
"[Br-].CCCC[N+]1(C)CCCC1","-","-","AUTO_1534","-","A140250","-","-","-","-","-","268.0","Celsius","-","-","-","-","268.0","Celsius","-","-","","-",""
"[I-].FC(F)(F)C(F)(F)C(F)(F)C(F)(F)C(F)(F)C(F)(F)CC[N+]1=CC=CC=N1","-","-","AUTO_1535","-","A140250","-","-","-","-","-","268.0","Celsius","-","-","-","-","268.0","Celsius","-","-","","-",""
"[Br-].CC[C@H](C)[C@H](N)CN1C=C[N+](C)=C1","-","-","AUTO_1537","-","A140250","-","-","-","-","-","268.0","Celsius","-","-","-","-","268.0","Celsius","-","-","","-",""
"N#C[N-]C#N.CCCCCCCCCCCCCCOC(=O)C[N+](C)(C)C","-","-","AUTO_1539","-","A140250","-","-","-","-","-","268.0","Celsius","-","-","-","-","268.0","Celsius","-","-","","-",""
"[Br-].CCCCCCCC[N+]1=CN(CCCCCCOC2=CC=C(C=C2)/N=N/C3=CC=C(C)C=C3)C=C1","-","-","AUTO_1540","-","A139585","28856367","-","-","-","-","268.0","Celsius","-","-","-","-","268.0","Celsius","-","-","","-",""
"N#CC1=N[N-]N=C1C#N.CCCCN1C=C[N+](C)=C1C","-","-","AUTO_1541","-","A140250","-","-","-","-","-","268.0","Celsius","-","-","-","-","268.0","Celsius","-","-","","-",""
"[Br-].CCCCCCCCCCCC[N+]1=C(C)N(CCC)C=C1","-","-","AUTO_1542","-","A139515","16389616","-","-","-","-","268.0","Celsius","-","-","-","-","268.0","Celsius","-","-","","-",""
"OCC[NH2+]C1=CC=CC=C1.CCCCCCCCCCCCCCCC([O-])=O","-","-","AUTO_1548","-","A140250","-","-","","-","-","269.0","Celsius","-","-","-","-","269.0","Celsius","-","-","","-",""
"CCCCCCCCC[S+]1CCCC1.FC(F)(F)S(=O)(=O)[N-]S(=O)(=O)C(F)(F)F","-","-","AUTO_1549","-","A140250","-","-","-","-","-","269.0","Celsius","-","-","-","-","269.0","Celsius","-","-","","-",""
"[Br-].CCCCCCCCCCCC[N+]1=C(C)N(CCCCC)C=C1","-","-","AUTO_1550","-","A139600","33354944","-","-","-","-","269.0","Celsius","-","-","-","-","269.0","Celsius","-","-","","-",""
"[Br-].CCCCCCCCCCCC[N+]1=C(C)N(CCCCCC)C=C1","-","-","AUTO_1551","-","A140250","-","-","-","-","-","269.0","Celsius","-","-","-","-","269.0","Celsius","-","-","","-",""
"FC(F)(F)S(=O)(=O)[N-]S(=O)(=O)C(F)(F)F.CSC1=[N+](C)C2=C(N1C)N(C)C(=O)N(C)C2=O","-","-","AUTO_1552","-","A139599","33137244","-","-","-","-","269.1","Celsius","-","-","-","-","269.1","Celsius","-","-","","-",""
"O=N(=O)[N-]C#N.C[N+](C)(N)CCO","-","-","AUTO_1553","-","A139542","20135648","-","-","-","-","269.1","Celsius","-","-","-","-","269.1","Celsius","-","-","","-",""
"[Br-].CCC[N+](CCC)(CCC)CCC","-","-","AUTO_1554","-","A140250","-","-","-","-","-","270.0","Celsius","-","-","-","-","270.0","Celsius","-","-","","-",""
"N#C[C-](C#N)C#N.CCCCN1C=C[N+](C)=C1","-","-","AUTO_1555","-","A140250","-","-","-","-","-","270.0","Celsius","-","-","-","-","270.0","Celsius","-","-","","-",""
"[Br-].CC(C)[C@H](N)CN1C=C[N+](C)=C1","-","-","AUTO_1562","-","A140250","-","-","-","-","-","270.0","Celsius","-","-","-","-","270.0","Celsius","-","-","","-",""
"COCC[N+]1(C)CCOC1.F[B-](F)(F)C(F)(F)C(F)(F)C(F)(F)C(F)(F)F","-","-","AUTO_1563","-","A140250","-","-","-","-","-","270.0","Celsius","-","-","-","-","270.0","Celsius","-","-","","-",""
"CCC[N+](C)(C)C.FC(F)(F)S(=O)(=O)[N-]C#N","-","-","AUTO_1567","-","A139579","26885778","-","-","-","-","270.0","Celsius","-","-","-","-","270.0","Celsius","-","-","","-",""
"[N-]=N#N.CCCC[P+](C)(CCCC)CCCC","-","-","AUTO_1568","-","A140250","-","-","-","-","-","270.0","Celsius","-","-","-","-","270.0","Celsius","-","-","","-",""
"[Br-].CCCCCCCCCCCC[N+]1=CN(CCCCCCOC2=CC=C(C=C2)/N=N/C3=CC=C(C)C=C3)C=C1","-","-","AUTO_1569","-","A140250","-","-","-","-","-","270.0","Celsius","-","-","-","-","270.0","Celsius","-","-","","-",""
"CC[N+](CC)(CC)CC.FC(F)(F)C(F)(F)C1=NC(C#N)=C([N-]1)C#N","-","-","AUTO_1570","-","A139515","16389616","-","-","-","-","270.0","Celsius","-","-","-","-","270.0","Celsius","-","-","","-",""
"[Br-].NC(=O)C[N+]1=C2CCCCCN2CCC1","-","-","AUTO_1571","-","A140250","-","-","-","-","-","270.0","Celsius","-","-","-","-","270.0","Celsius","-","-","","-",""
"OCCCS([O-])(=O)=O.OCC[NH+](CCO)CCO","-","-","AUTO_1573","-","A139572","25504790","-","","-","-","270.0","Celsius","-","-","-","-","270.0","Celsius","-","-","","-",""
"[Br-].CCCCCCCCCCCC[N+]1=C(C)N(CCCCCCC)C=C1","-","-","AUTO_1574","-","A140250","-","-","-","-","-","270.0","Celsius","-","-","-","-","270.0","Celsius","-","-","","-",""
"C[N+](C)(C)C.N#CC1(O[B-]2(OC1(C#N)C#N)OC(C#N)(C#N)C(O2)(C#N)C#N)C#N","-","-","AUTO_1575","-","A140250","-","-","-","-","-","270.3","Celsius","-","-","-","-","270.3","Celsius","-","-","","-",""
"CC(C)(C)OC(=O)[C@@H]([NH3+])CC1=CC=CC=C1.FC(F)(F)C(F)(F)S(=O)(=O)[N-]S(=O)(=O)C(F)(F)C(F)(F)F","-","-","AUTO_1577","-","A140250","-","-","","-","-","270.36","Celsius","-","-","-","-","270.36","Celsius","-","-","","-",""
"OCC(CO)(CO)NCCCS([O-])(=O)=O.CCCC[N+](CCCC)(CCCC)CCCC","-","-","AUTO_1578","-","A140250","-","-","-","-","-","271.0","Celsius","-","-","-","-","271.0","Celsius","-","-","","-",""
"CN1C=[N+](C)C=N1.[O-]C1=C(C=C(C=C1N(=O)=O)N(=O)=O)N(=O)=O","-","-","AUTO_1579","-","A140250","-","-","-","-","-","271.0","Celsius","-","-","-","-","271.0","Celsius","-","-","","-",""
"[O-]S(O)(=O)=O.CC[NH+](CC)CC1=CC=CC=C1","-","-","AUTO_1581","-","A140250","-","-","","-","-","271.0","Celsius","-","-","-","-","271.0","Celsius","-","-","","-",""
"[Br-].CCCCCCCCCCCC[N+]1=C(C)N(CCCC)C=C1","-","-","AUTO_1582","-","A140250","-","-","-","-","-","271.0","Celsius","-","-","-","-","271.0","Celsius","-","-","","-",""
"FC(F)(F)S(=O)(=O)[N-]S(=O)(=O)C(F)(F)F.[NH3+][C@@H](CC1=CC=CC=C1)C(=O)OCC2=CC=CC=C2","-","-","AUTO_1583","-","A140250","-","-","","-","-","271.84","Celsius","-","-","-","-","271.84","Celsius","-","-","","-",""
"[Cl-].CCCCCCCCCCCC[N+]1=CN(C)C=C1","-","-","AUTO_1584","-","A139590","29745392","-","-","-","-","272.0","Celsius","-","-","-","-","272.0","Celsius","-","-","","-",""
"[Br-].CCCCCCCC[N+]1=CN(CCOC2=CC=C(C=C2)/N=N/C3=CC=C(C)C=C3)C=C1","-","-","AUTO_1587","-","A140250","-","-","-","-","-","272.0","Celsius","-","-","-","-","272.0","Celsius","-","-","","-",""
"[Cl-].C[N+]1=CN(CC=C)C=C1","-","-","AUTO_1588","-","A140250","-","-","-","-","-","273.0","Celsius","-","-","-","-","273.0","Celsius","-","-","","-",""
"[Br-].CCCCCCCCCCCC[N+]1=C(C)N(C)C=C1","-","-","AUTO_1590","-","A140250","-","-","-","-","-","273.0","Celsius","-","-","-","-","273.0","Celsius","-","-","","-",""
"CCCCCCCC[S+]1CCCC1.FC(F)(F)S(=O)(=O)[N-]S(=O)(=O)C(F)(F)F","-","-","AUTO_1591","-","A139600","33354944","-","-","-","-","273.0","Celsius","-","-","-","-","273.0","Celsius","-","-","","-",""
"FC(F)(F)S(=O)(=O)[N-]S(=O)(=O)C(F)(F)F.CCCCCC[N+]1=CN(CN2C=CC=N2)C=C1","-","-","AUTO_1594","-","A140250","-","-","-","-","-","273.0","Celsius","-","-","-","-","273.0","Celsius","-","-","","-",""
"CS([O-])(=O)=O.CCCCCCCCCCCCCCCCCCCCCCOC(=O)C[N+](C)(C)C","-","-","AUTO_1596","-","A140250","-","-","-","-","-","273.0","Celsius","-","-","-","-","273.0","Celsius","-","-","","-",""
"[Br-].CCCCCCCCCCCCCC[N+]1=CN(CCCCCCOC2=CC=C(C=C2)/N=N/C3=CC=C(C)C=C3)C=C1","-","-","AUTO_1597","-","A140250","-","-","-","-","-","273.0","Celsius","-","-","-","-","273.0","Celsius","-","-","","-",""
"[I-].CN1C=C[N+](CCC(F)(F)C(F)(F)C(F)(F)C(F)(F)F)=C1","-","-","AUTO_1599","-","A140250","-","-","-","-","-","274.0","Celsius","-","-","-","-","274.0","Celsius","-","-","","-",""
"[I-].C[N+]1=CN(CCC(F)(F)C(F)(F)F)C=C1","-","-","AUTO_1600","-","A140250","-","-","-","-","-","274.0","Celsius","-","-","-","-","274.0","Celsius","-","-","","-",""
"CCCCC[S+]1CCCC1.FC(F)(F)S(=O)(=O)[N-]S(=O)(=O)C(F)(F)F","-","-","AUTO_1601","-","A140250","-","-","-","-","-","274.0","Celsius","-","-","-","-","274.0","Celsius","-","-","","-",""