"SMILES","CASRN","EXTERNALID","N","NAME","ARTICLEID","PUBMEDID","PAGE","TABLE","Melting Point","UNIT {Melting Point}","Decomposition","UNIT {Decomposition}","Glass-transition temperature (Tg)","UNIT {Glass-transition temperature (Tg)}","Melting Point {measured, converted}","UNIT {Melting Point}","Decomposition {measured, converted}","UNIT {Decomposition}","Glass-transition temperature (Tg) {measured, converted}","UNIT {Glass-transition temperature (Tg)}","weight loss","UNIT {weight loss}","Solvent"
"OCC[N+](C)(C)C.[O-]C(=O)C1=CC=CC=C1O","-","-","AUTO_685","C0482_A0145","A133072","-","-","-","-","-","230.0","Celsius","-","-","-","-","230.0","Celsius","-","-","","-",""
"OCC[N+](C)(C)C.[O-]C(=O)COC1=CC=C2C(=C1)C=CC=C2","-","-","AUTO_686","C0482_A0131","A133072","-","-","-","-","-","210.0","Celsius","-","-","-","-","210.0","Celsius","-","-","","-",""
"C[N+](CCCC(F)(F)F)(C)C.FC(S(=O)(=O)[N-]S(=O)(=O)C(F)(F)F)(F)F","-","-","AUTO_687","C1462_A0048","A133072","-","-","-","-","-","408.0","Celsius","-","-","-","-","408.0","Celsius","-","-","","-",""
"[N+](CCC)(CCC)(C)CC.FC(S(=O)(=O)[N-]S(=O)(=O)C(F)(F)F)(F)F","-","-","AUTO_688","C0381_A0048","A133072","-","-","-","-","-","405.0","Celsius","-","-","-","-","405.0","Celsius","-","-","","-",""
"CCCCC[P+](CC)(CC)CC.FC(S(=O)(=O)[N-]S(=O)(=O)C(F)(F)F)(F)F","-","-","AUTO_689","C0161_A0048","A133072","-","-","-","-","-","380.0","Celsius","-","-","-","-","380.0","Celsius","-","-","","-",""
"CCCCCCCCCCCC[P+](CC)(CC)CC.FC(S(=O)(=O)[N-]S(=O)(=O)C(F)(F)F)(F)F","-","-","AUTO_690","C1136_A0048","A133072","-","-","-","-","-","408.0","Celsius","-","-","-","-","408.0","Celsius","-","-","","-",""
"COC[P+](CC)(CC)CC.FC(S(=O)(=O)[N-]S(=O)(=O)C(F)(F)F)(F)F","-","-","AUTO_691","C1114_A0048","A133072","-","-","-","-","-","388.0","Celsius","-","-","-","-","388.0","Celsius","-","-","","-",""
"COCC[P+](CC)(CC)CC.FC(S(=O)(=O)[N-]S(=O)(=O)C(F)(F)F)(F)F","-","-","AUTO_692","C0678_A0048","A133072","-","-","-","-","-","404.0","Celsius","-","-","-","-","404.0","Celsius","-","-","","-",""
"C[S+](C)C.FS(=O)(=O)[N-]S(F)(=O)=O","-","-","AUTO_693","C0310_A0027","A133072","-","-","-","-","-","280.0","Celsius","-","-","-","-","280.0","Celsius","-","-","","-",""
"COCC[S+](C)C.FS(=O)(=O)[N-]S(F)(=O)=O","-","-","AUTO_694","C1427_A0027","A133072","-","-","-","-","-","254.0","Celsius","-","-","-","-","254.0","Celsius","-","-","","-",""
"N#CCC[S+](C)C.FS(=O)(=O)[N-]S(F)(=O)=O","-","-","AUTO_695","C1426_A0027","A133072","-","-","-","-","-","226.0","Celsius","-","-","-","-","226.0","Celsius","-","-","","-",""
"CC[S+](C)C.FS(=O)(=O)[N-]S(F)(=O)=O","-","-","AUTO_696","C0729_A0027","A133072","-","-","-","-","-","278.0","Celsius","-","-","-","-","278.0","Celsius","-","-","","-",""
"CC[S+](C)CC.FS(=O)(=O)[N-]S(F)(=O)=O","-","-","AUTO_697","C1280_A0027","A133072","-","-","-","-","-","265.0","Celsius","-","-","-","-","265.0","Celsius","-","-","","-",""
"CCC[S+](CC)CC.FS(=O)(=O)[N-]S(F)(=O)=O","-","-","AUTO_698","C1281_A0027","A133072","-","-","-","-","-","254.0","Celsius","-","-","-","-","254.0","Celsius","-","-","","-",""
"CCCC[S+](CC)CC.FC(S(=O)(=O)[N-]S(=O)(=O)C(F)(F)F)(F)F","-","-","AUTO_699","C1424_A0048","A133072","-","-","-","-","-","297.0","Celsius","-","-","-","-","297.0","Celsius","-","-","","-",""
"CC[S+](CC)CC.FS(=O)(=O)[N-]S(F)(=O)=O","-","-","AUTO_700","C0598_A0027","A133072","-","-","-","-","-","253.0","Celsius","-","-","-","-","253.0","Celsius","-","-","","-",""
"COCC[S+](CCOC)C.FS(=O)(=O)[N-]S(F)(=O)=O","-","-","AUTO_701","C1449_A0027","A133072","-","-","-","-","-","236.0","Celsius","-","-","-","-","236.0","Celsius","-","-","","-",""
"COCC[S+](CCOC)CC.FS(=O)(=O)[N-]S(F)(=O)=O","-","-","AUTO_702","C1433_A0027","A133072","-","-","-","-","-","236.0","Celsius","-","-","-","-","236.0","Celsius","-","-","","-",""
"CCC[S+](C)C.FC(S(=O)(=O)[N-]S(=O)(=O)C(F)(F)F)(F)F","-","-","AUTO_703","C1431_A0048","A133072","-","-","-","-","-","312.0","Celsius","-","-","-","-","312.0","Celsius","-","-","","-",""
"CCCC[S+](C)C.FC(S(=O)(=O)[N-]S(=O)(=O)C(F)(F)F)(F)F","-","-","AUTO_704","C1429_A0048","A133072","-","-","-","-","-","307.0","Celsius","-","-","-","-","307.0","Celsius","-","-","","-",""
"CCCCC[S+](CC)CC.FC(S(=O)(=O)[N-]S(=O)(=O)C(F)(F)F)(F)F","-","-","AUTO_705","C1425_A0048","A133072","-","-","-","-","-","296.0","Celsius","-","-","-","-","296.0","Celsius","-","-","","-",""
"CCC[S@@+](CC)C.FC(S(=O)(=O)[N-]S(=O)(=O)C(F)(F)F)(F)F","-","-","AUTO_706","C1455_A0048","A133072","-","-","-","-","-","307.0","Celsius","-","-","-","-","307.0","Celsius","-","-","","-",""
"CCCC[S@@+](CC)C.FC(S(=O)(=O)[N-]S(=O)(=O)C(F)(F)F)(F)F","-","-","AUTO_707","C1453_A0048","A133072","-","-","-","-","-","312.0","Celsius","-","-","-","-","312.0","Celsius","-","-","","-",""
"CCCCC[S@@+](CC)C.FC(S(=O)(=O)[N-]S(=O)(=O)C(F)(F)F)(F)F","-","-","AUTO_708","C1454_A0048","A133072","-","-","-","-","-","309.0","Celsius","-","-","-","-","309.0","Celsius","-","-","","-",""
"CN(C(=[N+](C)C)N(C)C)C.FC(S(=O)(=O)[N-]S(=O)(=O)C(F)(F)F)(F)F","-","-","AUTO_709","C1436_A0048","A133072","-","-","-","-","-","418.0","Celsius","-","-","-","-","418.0","Celsius","-","-","","-",""
"CC[N+](=C(N(C)C)N(C)C)C.FC(S(=O)(=O)[N-]S(=O)(=O)C(F)(F)F)(F)F","-","-","AUTO_710","C1438_A0048","A133072","-","-","-","-","-","416.0","Celsius","-","-","-","-","416.0","Celsius","-","-","","-",""
"CCC[N+](=C(N(C)C)N(C)C)C.FC(S(=O)(=O)[N-]S(=O)(=O)C(F)(F)F)(F)F","-","-","AUTO_711","C1439_A0048","A133072","-","-","-","-","-","415.0","Celsius","-","-","-","-","415.0","Celsius","-","-","","-",""
"CC[N+](=C(N(C)C)N(C)C)CC.FC(S(=O)(=O)[N-]S(=O)(=O)C(F)(F)F)(F)F","-","-","AUTO_712","C1440_A0048","A133072","-","-","-","-","-","422.0","Celsius","-","-","-","-","422.0","Celsius","-","-","","-",""
"CCC[N+](=C(N(C)C)N(C)C)CC.FC(S(=O)(=O)[N-]S(=O)(=O)C(F)(F)F)(F)F","-","-","AUTO_713","C1441_A0048","A133072","-","-","-","-","-","417.0","Celsius","-","-","-","-","417.0","Celsius","-","-","","-",""
"CCC[N+](=C(N(C)C)N(C)C)CCC.FC(S(=O)(=O)[N-]S(=O)(=O)C(F)(F)F)(F)F","-","-","AUTO_714","C1442_A0048","A133072","-","-","-","-","-","396.0","Celsius","-","-","-","-","396.0","Celsius","-","-","","-",""
"CCCC[N+](=C(N(C)C)N(C)C)C.FC(S(=O)(=O)[N-]S(=O)(=O)C(F)(F)F)(F)F","-","-","AUTO_715","C0268_A0048","A133072","-","-","-","-","-","409.0","Celsius","-","-","-","-","409.0","Celsius","-","-","","-",""
"CCCC[N+](=C(N(C)C)N(C)C)CC.FC(S(=O)(=O)[N-]S(=O)(=O)C(F)(F)F)(F)F","-","-","AUTO_716","C1443_A0048","A133072","-","-","-","-","-","394.0","Celsius","-","-","-","-","394.0","Celsius","-","-","","-",""
"CCCC[N+](=C(N(C)C)N(C)C)CCC.FC(S(=O)(=O)[N-]S(=O)(=O)C(F)(F)F)(F)F","-","-","AUTO_717","C1444_A0048","A133072","-","-","-","-","-","388.0","Celsius","-","-","-","-","388.0","Celsius","-","-","","-",""
"CCCC[N+](=C(N(C)C)N(C)C)CCCC.FC(S(=O)(=O)[N-]S(=O)(=O)C(F)(F)F)(F)F","-","-","AUTO_718","C1437_A0048","A133072","-","-","-","-","-","406.0","Celsius","-","-","-","-","406.0","Celsius","-","-","","-",""
"C[N+](=C1N(C)CCN1C)C.FC(S(=O)(=O)[N-]S(=O)(=O)C(F)(F)F)(F)F","-","-","AUTO_719","C1418_A0048","A133072","-","-","-","-","-","405.0","Celsius","-","-","-","-","405.0","Celsius","-","-","","-",""
"CC[N+](=C1N(C)CCN1C)C.FC(S(=O)(=O)[N-]S(=O)(=O)C(F)(F)F)(F)F","-","-","AUTO_720","C1419_A0048","A133072","-","-","-","-","-","403.0","Celsius","-","-","-","-","403.0","Celsius","-","-","","-",""
"CC[N+](=C1N(C)CCN1C)CC.FC(S(=O)(=O)[N-]S(=O)(=O)C(F)(F)F)(F)F","-","-","AUTO_721","C1420_A0048","A133072","-","-","-","-","-","401.0","Celsius","-","-","-","-","401.0","Celsius","-","-","","-",""
"CCC[N+](=C1N(C)CCN1C)CC.FC(S(=O)(=O)[N-]S(=O)(=O)C(F)(F)F)(F)F","-","-","AUTO_722","C1421_A0048","A133072","-","-","-","-","-","385.0","Celsius","-","-","-","-","385.0","Celsius","-","-","","-",""
"CCC[N+](=C1N(C)CCN1C)CCC.FC(S(=O)(=O)[N-]S(=O)(=O)C(F)(F)F)(F)F","-","-","AUTO_723","C1422_A0048","A133072","-","-","-","-","-","395.0","Celsius","-","-","-","-","395.0","Celsius","-","-","","-",""
"CCC[N+](=C1N(C)CCN1C)C.FC(S(=O)(=O)[N-]S(=O)(=O)C(F)(F)F)(F)F","-","-","AUTO_724","C0046_A0048","A133072","-","-","-","-","-","394.0","Celsius","-","-","-","-","394.0","Celsius","-","-","","-",""
"CCCCC[N+]=1C=CN(C1)C.C(C(F)(F)[P-](C(C(F)(F)F)(F)F)(C(C(F)(F)F)(F)F)(F)(F)F)(F)(F)F","-","-","AUTO_725","C0782_A0071","A133072","-","-","-","-","-","300.0","Celsius","-","-","-","-","300.0","Celsius","-","-","","-",""
"CN1N=[N+](C=2C1=CC=CC2)CC3=CC=CC=C3.S(C)(=O)(=O)[O-]","-","-","AUTO_726","C0235_A0054","A133072","-","-","-","-","-","180.0","Celsius","-","-","-","-","180.0","Celsius","-","-","","-",""
"C[NH+]=C1N(C)CCN1C.[N+](=O)([O-])[O-]","-","-","AUTO_727","C0304_A0090","A133072","-","-","-","-","-","130.0","Celsius","-","-","-","-","130.0","Celsius","-","-","","-",""
"CCC[NH+]=C1N(C)CCN1C.[N+](=O)([O-])[O-]","-","-","AUTO_728","C1152_A0090","A133072","-","-","-","-","-","128.0","Celsius","-","-","-","-","128.0","Celsius","-","-","","-",""
"CC[N+]=1C=CN(C1)C.[Br-]","-","-","AUTO_729","C0460_A0004","A133072","-","-","-","-","-","301.0","Celsius","-","-","-","-","301.0","Celsius","-","-","","-",""
"CC[N+]=1C=CN(C1)C.C(C)(=O)[O-]","-","-","AUTO_730","C0460_A0087","A133072","-","-","-","-","-","216.0","Celsius","-","-","-","-","216.0","Celsius","-","-","","-",""
"CC[N+]=1C=CN(C1)C.FC(C(=O)[O-])F","-","-","AUTO_731","C0460_A0156","A133072","-","-","-","-","-","263.0","Celsius","-","-","-","-","263.0","Celsius","-","-","","-",""
"CC[N+]=1C=CN(C1)C.[O-]C(=O)CCC","-","-","AUTO_732","C0460_A0157","A133072","-","-","-","-","-","213.0","Celsius","-","-","-","-","213.0","Celsius","-","-","","-",""
"CC[N+]=1C=CN(C1)C.CCCCCC(=O)[O-]","-","-","AUTO_733","C0460_A0158","A133072","-","-","-","-","-","212.0","Celsius","-","-","-","-","212.0","Celsius","-","-","","-",""
"CC[N+]=1C=CN(C1)C.CCCCCCCC(=O)[O-]","-","-","AUTO_734","C0460_A0159","A133072","-","-","-","-","-","216.0","Celsius","-","-","-","-","216.0","Celsius","-","-","","-",""
"CC[N+]=1C=CN(C1)C.CCCCCCCCCCCCCCCC(=O)[O-]","-","-","AUTO_735","C0460_A0160","A133072","-","-","-","-","-","216.0","Celsius","-","-","-","-","216.0","Celsius","-","-","","-",""
"CC[N+]=1C=CN(C1)C.[O-]C(=O)C(C)(C)C","-","-","AUTO_736","C0460_A0161","A133072","-","-","-","-","-","216.0","Celsius","-","-","-","-","216.0","Celsius","-","-","","-",""
"CC[N+]=1C=CN(C1)C.[O-]C(=O)C1CC1","-","-","AUTO_737","C0460_A0162","A133072","-","-","-","-","-","212.0","Celsius","-","-","-","-","212.0","Celsius","-","-","","-",""
"CC[N+]=1C=CN(C1)C.[O-]C(=S)C","-","-","AUTO_738","C0460_A0163","A133072","-","-","-","-","-","219.0","Celsius","-","-","-","-","219.0","Celsius","-","-","","-",""
"CCN1C=C[N+](=C1C)C.C(C)(=O)[O-]","-","-","AUTO_739","C0162_A0087","A133072","-","-","-","-","-","221.0","Celsius","-","-","-","-","221.0","Celsius","-","-","","-",""
"CN1C=C[N+](=C1)C.S(C)(=O)(=O)[O-]","-","-","AUTO_740","C0958_A0054","A133072","-","-","-","-","-","380.0","Celsius","-","-","-","-","380.0","Celsius","-","-","","-",""
"CCC[N+]=1C=CN(C1)C.S(C)(=O)(=O)[O-]","-","-","AUTO_741","C0811_A0054","A133072","-","-","-","-","-","333.0","Celsius","-","-","-","-","333.0","Celsius","-","-","","-",""
"CCCC[N+]=1C=CN(C1)C.S(C)(=O)(=O)[O-]","-","-","AUTO_742","C0505_A0054","A133072","-","-","-","-","-","352.0","Celsius","-","-","-","-","352.0","Celsius","-","-","","-",""
"CCCCCC[N+]=1C=CN(C1)C.S(C)(=O)(=O)[O-]","-","-","AUTO_743","C0190_A0054","A133072","-","-","-","-","-","337.0","Celsius","-","-","-","-","337.0","Celsius","-","-","","-",""
"CCCCCCCCCC[N+]=1C=CN(C1)C.S(C)(=O)(=O)[O-]","-","-","AUTO_744","C0515_A0054","A133072","-","-","-","-","-","335.0","Celsius","-","-","-","-","335.0","Celsius","-","-","","-",""
"CC[N+]=1C=CN(C1)C.C(C)S(=O)(=O)[O-]","-","-","AUTO_745","C0460_A0103","A133072","-","-","-","-","-","342.0","Celsius","-","-","-","-","342.0","Celsius","-","-","","-",""
"CC[N+]=1C=CN(C1)C.C(CC)S(=O)(=O)[O-]","-","-","AUTO_746","C0460_A0104","A133072","-","-","-","-","-","340.0","Celsius","-","-","-","-","340.0","Celsius","-","-","","-",""
"CCCC[NH+]1CCC[C@@H](C1)C.FC(S(=O)(=O)[N-]S(=O)(=O)C(F)(F)F)(F)F","-","-","AUTO_747","C1492_A0048","A133072","-","-","-","-","-","340.0","Celsius","-","-","-","-","340.0","Celsius","-","-","","-",""
"CCCCCC[NH+]1CCC[C@@H](C1)C.FC(S(=O)(=O)[N-]S(=O)(=O)C(F)(F)F)(F)F","-","-","AUTO_748","C1493_A0048","A133072","-","-","-","-","-","360.0","Celsius","-","-","-","-","360.0","Celsius","-","-","","-",""
"COCC[N@@+]1(C)CCC[C@H](C1)C.FC(S(=O)(=O)[N-]S(=O)(=O)C(F)(F)F)(F)F","-","-","AUTO_749","C1494_A0048","A133072","-","-","-","-","-","340.0","Celsius","-","-","-","-","340.0","Celsius","-","-","","-",""
"COCCOCC[N@+]1(C)CCC[C@H](C1)C.FC(S(=O)(=O)[N-]S(=O)(=O)C(F)(F)F)(F)F","-","-","AUTO_750","C1495_A0048","A133072","-","-","-","-","-","330.0","Celsius","-","-","-","-","330.0","Celsius","-","-","","-",""
"COCC[N+]1(C)CCCC1.FC(S(=O)(=O)[N-]S(=O)(=O)C(F)(F)F)(F)F","-","-","AUTO_751","C0141_A0048","A133072","-","-","-","-","-","416.0","Celsius","-","-","-","-","416.0","Celsius","-","-","","-",""
"COCCOCC[N+]1(C)CCCC1.FC(S(=O)(=O)[N-]S(=O)(=O)C(F)(F)F)(F)F","-","-","AUTO_752","C1496_A0048","A133072","-","-","-","-","-","330.0","Celsius","-","-","-","-","330.0","Celsius","-","-","","-",""
"CCCCCC[N@+]1(C)CCC[C@H](C1)C.FC(S(=O)(=O)[O-])(F)F","-","-","AUTO_753","C1497_A0084","A133072","-","-","-","-","-","320.0","Celsius","-","-","-","-","320.0","Celsius","-","-","","-",""
"COCC[N@@+]1(C)CCC[C@H](C1)C.FC(S(=O)(=O)[O-])(F)F","-","-","AUTO_754","C1494_A0084","A133072","-","-","-","-","-","330.0","Celsius","-","-","-","-","330.0","Celsius","-","-","","-",""
"COCCOCC[N@+]1(C)CCC[C@H](C1)C.FC(S(=O)(=O)[O-])(F)F","-","-","AUTO_755","C1495_A0084","A133072","-","-","-","-","-","310.0","Celsius","-","-","-","-","310.0","Celsius","-","-","","-",""
"CCCCCC[N@+]1(C)CCC[C@H](C1)C.FC(C(=O)[O-])(F)F","-","-","AUTO_756","C1497_A0064","A133072","-","-","-","-","-","180.0","Celsius","-","-","-","-","180.0","Celsius","-","-","","-",""
"COCC[N@@+]1(C)CCC[C@H](C1)C.FC(C(=O)[O-])(F)F","-","-","AUTO_757","C1494_A0064","A133072","-","-","-","-","-","150.0","Celsius","-","-","-","-","150.0","Celsius","-","-","","-",""
"COCCOCC[N@+]1(C)CCC[C@H](C1)C.FC(C(=O)[O-])(F)F","-","-","AUTO_758","C1495_A0064","A133072","-","-","-","-","-","150.0","Celsius","-","-","-","-","150.0","Celsius","-","-","","-",""
"CCCC[NH+]1CCC[C@@H](C1)C.[I-]","-","-","AUTO_759","C1492_A0069","A133072","-","-","-","-","-","180.0","Celsius","-","-","-","-","180.0","Celsius","-","-","","-",""
"CCCCCC[N@+]1(C)CCC[C@H](C1)C.[I-]","-","-","AUTO_760","C1497_A0069","A133072","-","-","-","-","-","180.0","Celsius","-","-","-","-","180.0","Celsius","-","-","","-",""
"COCCOCC[N@+]1(C)CCC[C@H](C1)C.[I-]","-","-","AUTO_761","C1495_A0069","A133072","-","-","-","-","-","180.0","Celsius","-","-","-","-","180.0","Celsius","-","-","","-",""
"CCCC[N+]1(C)CCOCC1.F[B-](F)(F)F","-","-","AUTO_762","C0750_A0020","A133072","-","-","-","-","-","386.0","Celsius","-","-","-","-","386.0","Celsius","-","-","","-",""
"CCCC[N+]1(C)CCOCC1.FC(F)(F)[B-](F)(F)F","-","-","AUTO_763","C0750_A0008","A133072","-","-","-","-","-","181.0","Celsius","-","-","-","-","181.0","Celsius","-","-","","-",""
"CSC(=[NH2+])N.COS(=O)(=O)[O-]","-","-","AUTO_764","C1169_A0044","A133072","-","-","-","-","-","200.0","Celsius","-","-","-","-","200.0","Celsius","-","-","","-",""
"C(C)SC(=[NH2+])N.[Br-]","-","-","AUTO_765","C1170_A0004","A133072","-","-","-","-","-","202.0","Celsius","-","-","-","-","202.0","Celsius","-","-","","-",""
"C(C)SC(=[NH2+])N.C(C)OS(=O)(=O)[O-]","-","-","AUTO_766","C1170_A0083","A133072","-","-","-","-","-","183.0","Celsius","-","-","-","-","183.0","Celsius","-","-","","-",""
"C(C)SC(=[NH2+])N.FC(S(=O)(=O)[N-]S(=O)(=O)C(F)(F)F)(F)F","-","-","AUTO_767","C1170_A0048","A133072","-","-","-","-","-","258.0","Celsius","-","-","-","-","258.0","Celsius","-","-","","-",""
"C(C)SC(=[NH+]C)NC.[Br-]","-","-","AUTO_768","C1171_A0004","A133072","-","-","-","-","-","166.0","Celsius","-","-","-","-","166.0","Celsius","-","-","","-",""
"C(C)SC(=[NH+]C)NC.C(C)OS(=O)(=O)[O-]","-","-","AUTO_769","C1171_A0083","A133072","-","-","-","-","-","175.0","Celsius","-","-","-","-","175.0","Celsius","-","-","","-",""
"C(C)SC(=[NH+]C)NC.FC(S(=O)(=O)[N-]S(=O)(=O)C(F)(F)F)(F)F","-","-","AUTO_770","C1171_A0048","A133072","-","-","-","-","-","245.0","Celsius","-","-","-","-","245.0","Celsius","-","-","","-",""
"CCSC(=[N+](C)C)N(C)C.[Br-]","-","-","AUTO_771","C0870_A0004","A133072","-","-","-","-","-","131.0","Celsius","-","-","-","-","131.0","Celsius","-","-","","-",""
"CCSC(=[N+](C)C)N(C)C.FC(S(=O)(=O)[N-]S(=O)(=O)C(F)(F)F)(F)F","-","-","AUTO_772","C0870_A0048","A133072","-","-","-","-","-","307.0","Celsius","-","-","-","-","307.0","Celsius","-","-","","-",""
"C(C)SC(=[NH+]CC)NCC.[Br-]","-","-","AUTO_773","C1173_A0004","A133072","-","-","-","-","-","150.0","Celsius","-","-","-","-","150.0","Celsius","-","-","","-",""
"C(C)SC(=[NH+]CC)NCC.C(C)OS(=O)(=O)[O-]","-","-","AUTO_774","C1173_A0083","A133072","-","-","-","-","-","186.0","Celsius","-","-","-","-","186.0","Celsius","-","-","","-",""
"C(C)SC(=[NH+]CC)NCC.FC(S(=O)(=O)[N-]S(=O)(=O)C(F)(F)F)(F)F","-","-","AUTO_775","C1173_A0048","A133072","-","-","-","-","-","257.0","Celsius","-","-","-","-","257.0","Celsius","-","-","","-",""
"C(CCC)SC(=[NH2+])N.[Br-]","-","-","AUTO_776","C1174_A0004","A133072","-","-","-","-","-","195.0","Celsius","-","-","-","-","195.0","Celsius","-","-","","-",""
"C(CCC)SC(=[NH2+])N.FC(S(=O)(=O)[N-]S(=O)(=O)C(F)(F)F)(F)F","-","-","AUTO_777","C1174_A0048","A133072","-","-","-","-","-","257.0","Celsius","-","-","-","-","257.0","Celsius","-","-","","-",""
"C(CCC)SC(=[NH+]C)NC.[Br-]","-","-","AUTO_778","C1175_A0004","A133072","-","-","-","-","-","161.0","Celsius","-","-","-","-","161.0","Celsius","-","-","","-",""
"C(CCC)SC(=[NH+]C)NC.FC(S(=O)(=O)[N-]S(=O)(=O)C(F)(F)F)(F)F","-","-","AUTO_779","C1175_A0048","A133072","-","-","-","-","-","209.0","Celsius","-","-","-","-","209.0","Celsius","-","-","","-",""
"C(CCC)SC(=[N+](C)C)N(C)C.[Br-]","-","-","AUTO_780","C1176_A0004","A133072","-","-","-","-","-","121.0","Celsius","-","-","-","-","121.0","Celsius","-","-","","-",""
"C(CCC)SC(=[N+](C)C)N(C)C.FC(S(=O)(=O)[N-]S(=O)(=O)C(F)(F)F)(F)F","-","-","AUTO_781","C1176_A0048","A133072","-","-","-","-","-","287.0","Celsius","-","-","-","-","287.0","Celsius","-","-","","-",""
"CCCCS/C(=[NH+]/CC)/NCC.[Br-]","-","-","AUTO_782","C1498_A0004","A133072","-","-","-","-","-","150.0","Celsius","-","-","-","-","150.0","Celsius","-","-","","-",""
"CCCCS/C(=[NH+]/CC)/NCC.FC(S(=O)(=O)[N-]S(=O)(=O)C(F)(F)F)(F)F","-","-","AUTO_783","C1498_A0048","A133072","-","-","-","-","-","175.0","Celsius","-","-","-","-","175.0","Celsius","-","-","","-",""
"C(CCCCC)SC(=[NH2+])N.[Br-]","-","-","AUTO_784","C1177_A0004","A133072","-","-","-","-","-","196.0","Celsius","-","-","-","-","196.0","Celsius","-","-","","-",""
"C(CCCCC)SC(=[NH2+])N.FC(S(=O)(=O)[N-]S(=O)(=O)C(F)(F)F)(F)F","-","-","AUTO_785","C1177_A0048","A133072","-","-","-","-","-","240.0","Celsius","-","-","-","-","240.0","Celsius","-","-","","-",""
"C(CCCCC)SC(=[NH+]C)NC.[Br-]","-","-","AUTO_786","C1178_A0004","A133072","-","-","-","-","-","157.0","Celsius","-","-","-","-","157.0","Celsius","-","-","","-",""
"C(CCCCC)SC(=[NH+]C)NC.FC(S(=O)(=O)[N-]S(=O)(=O)C(F)(F)F)(F)F","-","-","AUTO_787","C1178_A0048","A133072","-","-","-","-","-","256.0","Celsius","-","-","-","-","256.0","Celsius","-","-","","-",""
"C(CCCCC)SC(=[N+](C)C)N(C)C.[Br-]","-","-","AUTO_788","C1179_A0004","A133072","-","-","-","-","-","121.0","Celsius","-","-","-","-","121.0","Celsius","-","-","","-",""
"C(CCCCC)SC(=[N+](C)C)N(C)C.FC(S(=O)(=O)[N-]S(=O)(=O)C(F)(F)F)(F)F","-","-","AUTO_789","C1179_A0048","A133072","-","-","-","-","-","314.0","Celsius","-","-","-","-","314.0","Celsius","-","-","","-",""
"C(CCCCC)SC(=[NH+]CC)NCC.[Br-]","-","-","AUTO_790","C1180_A0004","A133072","-","-","-","-","-","154.0","Celsius","-","-","-","-","154.0","Celsius","-","-","","-",""