"SMILES","CASRN","EXTERNALID","N","NAME","ARTICLEID","PUBMEDID","PAGE","TABLE","Melting Point","UNIT {Melting Point}","Decomposition","UNIT {Decomposition}","Glass-transition temperature (Tg)","UNIT {Glass-transition temperature (Tg)}","Melting Point {measured, converted}","UNIT {Melting Point}","Decomposition {measured, converted}","UNIT {Decomposition}","Glass-transition temperature (Tg) {measured, converted}","UNIT {Glass-transition temperature (Tg)}","weight loss","UNIT {weight loss}","Solvent"
"CC[N+]1=CN(C)C=C1.F[P-](F)(C#N)(C#N)(C#N)C#N","-","-","AUTO_815","-","A139565","24737218","-","","-","-","201.0","Celsius","-","-","-","-","201.0","Celsius","-","-","","-",""
"C[NH+](C)C.[O-]C(=O)B(C(F)(F)F)C(F)(F)F","-","-","AUTO_816","-","A132545","-","-","","-","-","201.0","Celsius","-","-","-","-","201.0","Celsius","-","-","","-",""
"[BH3-]C#N.CCCC[N+](C)(C)N","-","-","AUTO_817","-","A132545","-","-","-","-","-","201.0","Celsius","-","-","-","-","201.0","Celsius","-","-","","-",""
"CC(C)(C)[NH2+]CCO.CCCCCCCCCCCCCCCC([O-])=O","-","-","AUTO_818","-","A139573","25703811","-","","-","-","201.0","Celsius","-","-","-","-","201.0","Celsius","-","-","","-",""
"[I-].CCN1C=CC=[N+]1CC","-","-","AUTO_819","-","A132545","-","-","-","-","-","201.1","Celsius","-","-","-","-","201.1","Celsius","-","-","","-",""
"[I-].CN1C=CC=[N+]1C","-","-","AUTO_820","-","A132545","-","-","-","-","-","201.4","Celsius","-","-","-","-","201.4","Celsius","-","-","","-",""
"O=N(=O)[N-]N(=O)=O.CN1C=C[N+](CCCS(F)(F)(F)(F)F)=C1","-","-","AUTO_821","-","A132545","-","-","-","-","-","201.7","Celsius","-","-","-","-","201.7","Celsius","-","-","","-",""
"[Cl-].CCCCCCCC[N+](C)(CCCCCCCC)CCCCCCCC","-","-","AUTO_823","-","A139530","18217657","-","-","-","-","202.0","Celsius","-","-","-","-","202.0","Celsius","-","-","","-",""
"[O-]C=O.CN1C=C[N+](CC=C)=C1","-","-","AUTO_825","-","A139517","16586524","-","-","-","-","202.0","Celsius","-","-","-","-","202.0","Celsius","-","-","","-",""
"[Br-].C=CCN1C=C[N+](CCC#N)=C1","-","-","AUTO_826","-","A132545","-","-","-","-","-","202.0","Celsius","-","-","-","-","202.0","Celsius","-","-","","-",""
"CN1C=C[N+](C)=C1.F[B-](F)(F)C(F)(F)F","-","-","AUTO_827","-","A132545","-","-","-","-","-","202.0","Celsius","-","-","-","-","202.0","Celsius","-","-","","-",""
"CC(C)(C)[NH2+]CCO.CCCCCCCCCCCC([O-])=O","-","-","AUTO_831","-","A132545","-","-","","-","-","202.0","Celsius","-","-","-","-","202.0","Celsius","-","-","","-",""
"F[P-](F)(F)(F)(F)F.FCC[N+]1=CC=NC=C1","-","-","AUTO_832","-","A139571","25498686","-","","-","-","202.0","Celsius","-","-","-","-","202.0","Celsius","-","-","","-",""
"F[B-](F)(F)F.CCCCSC[N+]1=CN(C)C=C1","-","-","AUTO_833","-","A139509","15540269","-","","-","-","202.0","Celsius","-","-","-","-","202.0","Celsius","-","-","","-",""
"FC(F)(F)S(=O)(=O)[N-]S(=O)(=O)C(F)(F)F.CCCCCCSC[N+]1=CN(COCCCC)C=C1","-","-","AUTO_834","-","A132545","-","-","-","-","-","202.0","Celsius","-","-","-","-","202.0","Celsius","-","-","","-",""
"[O-]S(=O)(=O)C(F)(F)F.CCCCCCCCCCCC1=NC(=NO1)C2=CC=[N+](C)C=C2","-","-","AUTO_837","-","A132545","-","-","-","-","-","202.0","Celsius","-","-","-","-","202.0","Celsius","-","-","","-",""
"C[N+](C)(C)C.N#CC1=C(N=C[N-]1)C#N","-","-","AUTO_838","-","A132545","-","-","-","-","-","202.0","Celsius","-","-","-","-","202.0","Celsius","-","-","","-",""
"[Cl-].C[Si]1(C)C[NH+](C[Si](C)(C)O1)C2CCCC2","-","-","AUTO_840","-","A139511","15762697","-","","-","-","202.0","Celsius","-","-","-","-","202.0","Celsius","-","-","","-",""
"[Br-].CCCCCCCCCCCCCCN1N=CC=[N+]1CCCCCCCCCCCCCC","-","-","AUTO_841","-","A132545","-","-","-","-","-","202.2","Celsius","-","-","-","-","202.2","Celsius","-","-","","-",""
"NCCC([O-])=O.CCCC[P+](CCCC)(CCCC)CCCC","-","-","AUTO_842","-","A139516","16528787","-","-","-","-","202.85","Celsius","-","-","-","-","202.85","Celsius","-","-","","-",""
"N#C[N-]C#N.CCOCC[N+]1=CN(CCC#N)CC1","-","-","AUTO_843","-","A132545","-","-","-","-","-","202.99","Celsius","-","-","-","-","202.99","Celsius","-","-","","-",""
"C[N+](C)(C)CCO.CCCCCC([O-])=O","-","-","AUTO_844","-","A132545","-","-","-","-","-","203.0","Celsius","-","-","-","-","203.0","Celsius","-","-","","-",""
"[Br-].CCCC[N+]1=CSC=C1","-","-","AUTO_845","-","A132545","-","-","-","-","-","203.0","Celsius","-","-","-","-","203.0","Celsius","-","-","","-",""
"CCCC[NH2+]CCO.CCCCCCCCCCCC([O-])=O","-","-","AUTO_846","-","A132545","-","-","","-","-","203.0","Celsius","-","-","-","-","203.0","Celsius","-","-","","-",""
"N#C[BH2-]C#N.C=CC[N+]1=CC=CC=C1","-","-","AUTO_847","-","A132545","-","-","-","-","-","203.0","Celsius","-","-","-","-","203.0","Celsius","-","-","","-",""
"[O-]S(=O)(=O)NC1CCCCC1.CCCCCCCCCC[N+](C)(C)CCCCCCCCCC","-","-","AUTO_848","-","A139550","21246695","-","-","-","-","203.0","Celsius","-","-","-","-","203.0","Celsius","-","-","","-",""
"CS([O-])(=O)=O.CCCCCCOC(=O)C[N+](C)(C)C","-","-","AUTO_849","-","A132545","-","-","-","-","-","203.0","Celsius","-","-","-","-","203.0","Celsius","-","-","","-",""
"NN1C=N[N+](CCN=N#N)=C1.O=N(=O)C1=NC(=N[N-]1)N(=O)=O","-","-","AUTO_851","-","A139512","15998035","-","-","-","-","204.0","Celsius","-","-","-","-","204.0","Celsius","-","-","","-",""
"C[N+](C)(C)CCO.CCCCCCCC([O-])=O","-","-","AUTO_853","-","A132545","-","-","-","-","-","205.0","Celsius","-","-","-","-","205.0","Celsius","-","-","","-",""
"O=C1[N-]S(=O)(=O)C2=CC=CC=C12.CN1C=C[N+](CC2=CC=CC=C2)=C1","-","-","AUTO_855","-","A132545","-","-","-","-","-","205.0","Celsius","-","-","-","-","205.0","Celsius","-","-","","-",""
"[O-]C(=O)C1=C(O)C=CC=C1.CCCCCCCCCOC[NH+]1C=CN=C1","-","-","AUTO_856","-","A139517","16586524","-","","-","-","205.0","Celsius","-","-","-","-","205.0","Celsius","-","-","","-",""
"CC[N+](CC)(CC)CC.O=N(=O)C1=NN=C([N-]1)N(=O)=O","-","-","AUTO_857","-","A139525","17665379","-","-","-","-","205.0","Celsius","-","-","-","-","205.0","Celsius","-","-","","-",""
"FC(F)(F)S(=O)(=O)[N-]S(=O)(=O)C(F)(F)F.CC(C)[C@@H]1CC[C@@H](C)C[C@H]1OC[N+]2=CC(C)=CC=C2","-","-","AUTO_858","-","A132545","-","-","-","-","-","205.0","Celsius","-","-","-","-","205.0","Celsius","-","-","","-",""
"FC(F)(F)S(=O)(=O)[N-]S(=O)(=O)C(F)(F)F.CC(C)[C@@H]1CC[C@@H](C)C[C@H]1OC[N+]2=CC=C(C)C=C2","-","-","AUTO_859","-","A132545","-","-","-","-","-","205.0","Celsius","-","-","-","-","205.0","Celsius","-","-","","-",""
"[BH3-]C#N.CC[N+](C)(C)N","-","-","AUTO_862","-","A132545","-","-","-","-","-","205.0","Celsius","-","-","-","-","205.0","Celsius","-","-","","-",""
"[N-]=N#N.CCN1C=C[N+](C)=C1","-","-","AUTO_863","-","A139565","24737218","-","-","-","-","205.0","Celsius","-","-","-","-","205.0","Celsius","-","-","","-",""
"C[N+](C)(C)C.[O-]S(=O)(=O)CCCNC1CCCCC1","-","-","AUTO_864","-","A139572","25504790","-","-","-","-","205.0","Celsius","-","-","-","-","205.0","Celsius","-","-","","-",""
"[O-]S(=O)(=O)C(F)(F)F.CO[C@@H]1[C@@H](C[N+]2=CC=CC=C2)O[C@@H](OCC=C)[C@H](OC)[C@H]1OC","-","-","AUTO_865","-","A132545","-","-","-","-","-","205.0","Celsius","-","-","-","-","205.0","Celsius","-","-","","-",""
"[Cl-].[NH3+]CCSSCCN","-","-","AUTO_866","-","A132545","-","-","","-","-","206.0","Celsius","-","-","-","-","206.0","Celsius","-","-","","-",""
"C[N+](C)(C)CCO.CCCCCCCCCCCC([O-])=O","-","-","AUTO_867","-","A132545","-","-","-","-","-","206.0","Celsius","-","-","-","-","206.0","Celsius","-","-","","-",""
"[O-]S(O)(=O)=O.[C@H]1(CCC[NH2+]1)C(O)=O","-","-","AUTO_868","-","A132545","-","-","","-","-","206.0","Celsius","-","-","-","-","206.0","Celsius","-","-","","-",""
"COC1=C(Cl)C=CC(Cl)=C1C([O-])=O.CCCCCCCCCCCCCC[N+](C)(C)C","-","-","AUTO_869","-","A132545","-","-","-","-","-","206.0","Celsius","-","-","-","-","206.0","Celsius","-","-","","-",""
"FC(F)(F)S(=O)(=O)[N-]S(=O)(=O)C(F)(F)F.CCCCCCCCCCCC[N+]1(C[C@@H]2CCCN2)CCCC1","-","-","AUTO_871","-","A132545","-","-","-","-","-","206.0","Celsius","-","-","-","-","206.0","Celsius","-","-","","-",""
"[I-].CCCCCCCCCCCCN1C=C[N+](CCCCCCCCCCCC)=N1","-","-","AUTO_872","-","A139549","20976042","-","-","-","-","206.0","Celsius","-","-","-","-","206.0","Celsius","-","-","","-",""
"OCC[NH+](CCO)CCO.OC(C([O-])=O)C1=CC=CC=C1","-","-","AUTO_874","-","A132545","-","-","","-","-","206.0","Celsius","-","-","-","-","206.0","Celsius","-","-","","-",""
"CN1C=C[N+](CC=C)=C1.[BH2-](N1C=CN=C1)N2C=CN=C2","-","-","AUTO_875","-","A139513","16010324","-","-","-","-","206.0","Celsius","-","-","-","-","206.0","Celsius","-","-","","-",""
"[Cl-].[NH3+]CCS","-","-","AUTO_877","-","A139572","25504790","-","","-","-","207.0","Celsius","-","-","-","-","207.0","Celsius","-","-","","-",""
"[S-]C#N.CCCC[N+](C)(CCCC)CCCC","-","-","AUTO_878","-","A132545","-","-","-","-","-","207.0","Celsius","-","-","-","-","207.0","Celsius","-","-","","-",""
"[O-]Cl(=O)(=O)=O.C[N+]1=CN(C=C)C=C1","-","-","AUTO_879","-","A132545","-","-","-","-","-","207.0","Celsius","-","-","-","-","207.0","Celsius","-","-","","-",""
"N#C[N-]C#N.CCCC[N+](CCCC)(CCCC)CC(=O)OCC","-","-","AUTO_880","-","A139598","32985638","-","-","-","-","207.0","Celsius","-","-","-","-","207.0","Celsius","-","-","","-",""
"[Br-].FCC[N+]1=CC=CC=N1","-","-","AUTO_881","-","A132545","-","-","-","-","-","207.0","Celsius","-","-","-","-","207.0","Celsius","-","-","","-",""
"N#CC1=NN=N[N-]1.CC(C)N1C=C[N+](=C1)C(C)C","-","-","AUTO_883","-","A132545","-","-","-","-","-","207.0","Celsius","-","-","-","-","207.0","Celsius","-","-","","-",""
"N[C@@H](CC1=CNC=N1)C([O-])=O.C[N+](C)(C)CCO[C@@H]1O[C@H](CO)[C@@H](O)[C@H](O)[C@H]1O","-","-","AUTO_884","-","A132545","-","-","-","-","-","207.0","Celsius","-","-","-","-","207.0","Celsius","-","-","","-",""
"N[C@@H](CC(N)=O)C([O-])=O.CCCCCCCC[N+]1=CN(C)C=C1","-","-","AUTO_886","-","A139574","25965417","-","-","-","-","207.84","Celsius","-","-","-","-","207.84","Celsius","-","-","","-",""
"C[N+](C)(C)C.CS([O-])(=O)=O","-","-","AUTO_887","-","A132545","-","-","-","-","-","208.0","Celsius","-","-","-","-","208.0","Celsius","-","-","","-",""
"[O-]C#N.CCCC[N+](C)(CCCC)CCCC","-","-","AUTO_888","-","A132545","-","-","-","-","-","208.0","Celsius","-","-","-","-","208.0","Celsius","-","-","","-",""
"FC(F)(F)S(=O)(=O)[N-]S(=O)(=O)C(F)(F)F.CCC1=CC=[N+](CO[C@@H]2C[C@H](C)CC[C@H]2C(C)C)C=C1","-","-","AUTO_889","-","A139517","16586524","-","-","-","-","208.0","Celsius","-","-","-","-","208.0","Celsius","-","-","","-",""
"[I-].CCCCCCCCCCCC1=NC(=NO1)C2=CC=[N+](C)C=C2","-","-","AUTO_890","-","A132545","-","-","-","-","-","208.0","Celsius","-","-","-","-","208.0","Celsius","-","-","","-",""
"[N-]1C=NN=N1.CCCC[N+]1=CN(C)C=C1","-","-","AUTO_891","-","A132545","-","-","-","-","-","208.0","Celsius","-","-","-","-","208.0","Celsius","-","-","","-",""
"CC(OC1=CC=C(Cl)C=C1Cl)C([O-])=O.CCCC[N+](CCCC)(CCCC)CCCC","-","-","AUTO_893","-","A132545","-","-","-","-","-","208.0","Celsius","-","-","-","-","208.0","Celsius","-","-","","-",""
"CC(C)C[C@H](N)C([O-])=O.C[N+](C)(C)CCO[C@@H]1O[C@H](CO)[C@@H](O)[C@H](O)[C@H]1O","-","-","AUTO_894","-","A132545","-","-","-","-","-","208.0","Celsius","-","-","-","-","208.0","Celsius","-","-","","-",""
"O=N(=O)[N-]C#N.C[N+](C)(N)CC=C","-","-","AUTO_895","-","A139542","20135648","-","-","-","-","208.2","Celsius","-","-","-","-","208.2","Celsius","-","-","","-",""
"CCOS([O-])(=O)=O.CC[N+]1=CC(C)=CC(C)=C1","-","-","AUTO_896","-","A132545","-","-","-","-","-","208.85","Celsius","-","-","-","-","208.85","Celsius","-","-","","-",""
"[I-].C[P+](C)(C)CF","-","-","AUTO_897","-","A132545","-","-","-","-","-","209.0","Celsius","-","-","-","-","209.0","Celsius","-","-","","-",""
"[I-].C[N+]1(CC#N)CCCC1","-","-","AUTO_899","-","A132545","-","-","-","-","-","209.0","Celsius","-","-","-","-","209.0","Celsius","-","-","","-",""
"N[C@@H](CC1=CC=C(O)C=C1)C([O-])=O.C[N+](C)(C)CCO[C@@H]1O[C@H](CO)[C@@H](O)[C@H](O)[C@H]1O","-","-","AUTO_900","-","A132545","-","-","-","-","-","209.0","Celsius","-","-","-","-","209.0","Celsius","-","-","","-",""
"[BH4-].CC[N+](CC)(CC)CC","-","-","AUTO_902","-","A132545","-","-","","-","-","210.0","Celsius","-","-","-","-","210.0","Celsius","-","-","","-",""
"[Br-].CCCCCCOC(=O)CN1C=C[N+](C)=C1","-","-","AUTO_903","-","A132545","-","-","-","-","-","210.0","Celsius","-","-","-","-","210.0","Celsius","-","-","","-",""
"COC1=C(Cl)C=CC(Cl)=C1C([O-])=O.CCCCCCCCCCCC[N+]1=CC=CC=C1","-","-","AUTO_905","-","A132545","-","-","-","-","-","210.0","Celsius","-","-","-","-","210.0","Celsius","-","-","","-",""
"F[B-](F)(F)F.CCCOCN1C=C[N+](COCCC)=C1","-","-","AUTO_906","-","A99534","23360222","-","","-","-","210.0","Celsius","-","-","-","-","210.0","Celsius","-","-","","-",""
"FC(F)(F)S(=O)(=O)[N-]S(=O)(=O)C(F)(F)F.CC(C)[C@@H]1CC[C@@H](C)C[C@H]1OC[N+]2=CC=C(C=C2)C(C)(C)C","-","-","AUTO_907","-","A132545","-","-","-","-","-","210.0","Celsius","-","-","-","-","210.0","Celsius","-","-","","-",""
"[O-]N(=O)=O.[C@H]([NH3+])(CC(C)C)C(=O)OC","-","-","AUTO_908","-","A132545","-","-","","-","-","210.0","Celsius","-","-","-","-","210.0","Celsius","-","-","","-",""
"O=N(=O)[CH-]C#N.CCN1C=C[N+](C)=C1","-","-","AUTO_910","-","A132545","-","-","-","-","-","210.0","Celsius","-","-","-","-","210.0","Celsius","-","-","","-",""
"[Br-].CCCCN1C=C[N+](CC2=CN(C[C@H]3O[C@@H]4O[C@@H]5[C@@H](CO)O[C@H](O[C@@H]6[C@@H](CO)O[C@H](O[C@@H]7[C@@H](CO)O[C@H](O[C@@H]8[C@@H](CO)O[C@H](O[C@@H]9[C@@H](CO)O[C@H](O[C@@H]%10[C@@H](CO)O[C@H](O[C@H]3[C@H](O)[C@H]4O)[C@H](O)[C@H]%10O)[C@H](O)[C@H]9O)[C@H](O)[C@H]8O)[C@H](O)[C@H]7O)[C@H](O)[C@H]6O)[C@H](O)[C@H]5O)N=N2)=C1","-","-","AUTO_913","-","A139513","16010324","-","-","-","-","210.0","Celsius","-","-","-","-","210.0","Celsius","-","-","","-",""
"OC(=O)CC([O-])=O.CCCC[N+](CC)(CC)CC","-","-","AUTO_915","-","A139507","15252794","-","-","-","-","210.0","Celsius","-","-","-","-","210.0","Celsius","-","-","","-",""
"OS([O-])(=O)=O.CC(C)(C)[NH+]1C[Si](C)(C)O[Si](C)(C)C1","-","-","AUTO_917","-","A132545","-","-","","-","-","210.0","Celsius","-","-","-","-","210.0","Celsius","-","-","","-",""
"[N-]=N#N.CCCC[N+]1=CN(C)C=C1","-","-","AUTO_918","-","A132545","-","-","-","-","-","211.0","Celsius","-","-","-","-","211.0","Celsius","-","-","","-",""
"N[C@@H](CC1=CC2=C(N1)C=CC=C2)C([O-])=O.C[N+](C)(C)CCO[C@@H]1O[C@H](CO)[C@@H](O)[C@H](O)[C@H]1O","-","-","AUTO_923","-","A139572","25504790","-","-","-","-","211.0","Celsius","-","-","-","-","211.0","Celsius","-","-","","-",""
"CC1=[NH+]C=CC=C1.[O-]C(=O)C1=CC=CC=C1N=NC2=CC=C(O)C=C2","-","-","AUTO_924","-","A139592","32006830","-","","-","-","211.8","Celsius","-","-","-","-","211.8","Celsius","-","-","","-",""
"C[C@H](N)C([O-])=O.CCCCCCCC[N+]1=CN(C)C=C1","-","-","AUTO_925","-","A139574","25965417","-","-","-","-","211.84","Celsius","-","-","-","-","211.84","Celsius","-","-","","-",""
"[Br-].CCCCCCCCOC(=O)CN1C=C[N+](C)=C1","-","-","AUTO_926","-","A132545","-","-","-","-","-","212.0","Celsius","-","-","-","-","212.0","Celsius","-","-","","-",""
"[O-]C(=O)C1=C(O)C=CC=C1.CCCCCCOC[NH+]1C=CN=C1","-","-","AUTO_927","-","A132545","-","-","","-","-","212.0","Celsius","-","-","-","-","212.0","Celsius","-","-","","-",""
"[Br-].FCCC[N+]1=CC=CN=C1","-","-","AUTO_930","-","A132545","-","-","-","-","-","212.0","Celsius","-","-","-","-","212.0","Celsius","-","-","","-",""
"FC(F)(F)S(=O)(=O)[N-]S(=O)(=O)C(F)(F)F.CCCCCCCCSC[N+]1=CN(COCCCC)C=C1","-","-","AUTO_931","-","A99534","23360222","-","-","-","-","212.0","Celsius","-","-","-","-","212.0","Celsius","-","-","","-",""
"CC[N+](CC)(CC)CC.N#CC1=C(N=C[N-]1)C#N","-","-","AUTO_932","-","A132545","-","-","-","-","-","212.0","Celsius","-","-","-","-","212.0","Celsius","-","-","","-",""
"C[C@H](O)C([O-])=O.CCCCCCCCCCCCCCOC(=O)C[N+](C)(C)C","-","-","AUTO_935","-","A139517","16586524","-","-","-","-","212.0","Celsius","-","-","-","-","212.0","Celsius","-","-","","-",""
"CC[N+](CC)(CC)CC.[O-]S(=O)(=O)CCCNC1CCCCC1","-","-","AUTO_936","-","A132545","-","-","-","-","-","212.0","Celsius","-","-","-","-","212.0","Celsius","-","-","","-",""
"[Cl-].CC(C)[C@H]1CC[C@H](C)C[C@@H]1OC[N+]2=C(C)N(C)C=C2","-","-","AUTO_937","-","A132545","-","-","-","-","-","212.0","Celsius","-","-","-","-","212.0","Celsius","-","-","","-",""
"N#C[N-]C#N.C[N+](C)(C)CC[N+](C)(C)C","-","-","AUTO_938","-","A132545","-","-","-","-","-","212.84","Celsius","-","-","-","-","212.84","Celsius","-","-","","-",""
"CCCC[N+](CCCC)(CCCC)CCCC.CCCCC(CC)COC(=O)CC(C(=O)OCC(CC)CCCC)S([O-])(=O)=O","-","-","AUTO_940","-","A132545","-","-","-","-","-","212.85","Celsius","-","-","-","-","212.85","Celsius","-","-","","-",""
"[NH4+].OP(O)([O-])=O","-","-","AUTO_941","-","A132545","-","-","-","-","-","213.0","Celsius","-","-","-","-","213.0","Celsius","-","-","","-",""
"CC([O-])=O.C[N+](C)(C)CCO","-","-","AUTO_942","-","A132545","-","-","-","-","-","213.0","Celsius","-","-","-","-","213.0","Celsius","-","-","","-",""
"[Br-].CCCC[N+]1(C)CCOC1","-","-","AUTO_943","-","A139515","16389616","-","-","-","-","213.0","Celsius","-","-","-","-","213.0","Celsius","-","-","","-",""
"F[P-](F)(F)(F)(F)F.C[N+]1(CCC2=CC=CC=C2)CCCC1","-","-","AUTO_944","-","A132545","-","-","","-","-","330.0","Celsius","-","-","-","-","330.0","Celsius","-","-","","-",""
"C1CCC(CC1)[NH2+]C2CCCCC2.[O-]C(=O)C1=CC=CC=C1N=NC2=CC=C(O)C=C2","-","-","AUTO_946","-","A132545","-","-","","-","-","213.0","Celsius","-","-","-","-","213.0","Celsius","-","-","","-",""
"CCC[N+]1=CN(C)C=C1.[BH2-](N1C=CN=C1)N2C=CN=C2","-","-","AUTO_947","-","A139592","32006830","-","-","-","-","213.0","Celsius","-","-","-","-","213.0","Celsius","-","-","","-",""
"[Cl-].CC(COC1=CC=CC=C1)[NH+](CCCl)CC2=CC=CC=C2","-","-","AUTO_948","-","A139572","25504790","-","","-","-","214.0","Celsius","-","-","-","-","214.0","Celsius","-","-","","-",""
"CCC([O-])=O.C[N+]1=CN(CC=C)C=C1","-","-","AUTO_949","-","A132545","-","-","-","-","-","214.0","Celsius","-","-","-","-","214.0","Celsius","-","-","","-",""
"OC(=O)CCC([O-])=O.CCCC[N+](CC)(CC)CC","-","-","AUTO_951","-","A139571","25498686","-","-","-","-","214.0","Celsius","-","-","-","-","214.0","Celsius","-","-","","-",""
"N#CC1=NN=N[N-]1.CCN1C=C[N+](C)=C1","-","-","AUTO_952","-","A132545","-","-","-","-","-","214.0","Celsius","-","-","-","-","214.0","Celsius","-","-","","-",""
"CC1=CC=C[NH+]=C1.[O-]C(=O)C(=CC1=CC=C(O)C=C1)C#N","-","-","AUTO_953","-","A139592","32006830","-","","-","-","214.0","Celsius","-","-","-","-","214.0","Celsius","-","-","","-",""
"[NH2+]1C=CN=C1.[O-]C(=O)C(=CC1=CC=C(O)C=C1)C#N","-","-","AUTO_954","-","A139592","32006830","-","","-","-","214.9","Celsius","-","-","-","-","214.9","Celsius","-","-","","-",""
"[O-]S(=O)(=O)CCCN1CCOCC1.CCCC[N+](CCCC)(CCCC)CCCC","-","-","AUTO_956","-","A139572","25504790","-","-","-","-","215.0","Celsius","-","-","-","-","215.0","Celsius","-","-","","-",""
"CCCC[N+]1(C)CCOCC1.COC1=C(Cl)C=CC(Cl)=C1C([O-])=O","-","-","AUTO_958","-","A132545","-","-","-","-","-","215.0","Celsius","-","-","-","-","215.0","Celsius","-","-","","-",""
"CCCCSC[N+]1=CN(C)C=C1.FC(F)(F)S(=O)(=O)[N-]S(=O)(=O)C(F)(F)F","-","-","AUTO_962","-","A132545","-","-","-","-","-","215.0","Celsius","-","-","-","-","215.0","Celsius","-","-","","-",""
"CC1(C)C[NH2+]C=N1.FC(F)(F)C(=O)[CH-]C(=O)C(F)(F)F","-","-","AUTO_963","-","A132545","-","-","","-","-","215.0","Celsius","-","-","-","-","215.0","Celsius","-","-","","-",""
"CC[N+](CC)(CC)CC.O=N(=O)C1=C(N=C[N-]1)N(=O)=O","-","-","AUTO_964","-","A132545","-","-","-","-","-","215.0","Celsius","-","-","-","-","215.0","Celsius","-","-","","-",""
"N#CC1=C(N=C[N-]1)C#N.CCCC[N+](CCCC)(CCCC)CCCC","-","-","AUTO_965","-","A139517","16586524","-","-","-","-","215.0","Celsius","-","-","-","-","215.0","Celsius","-","-","","-",""
"CCCC[N+]1(C)CCCC1.COC1=C(C([O-])=O)C(Cl)=CC=C1Cl","-","-","AUTO_967","-","A139517","16586524","-","-","-","-","215.0","Celsius","-","-","-","-","215.0","Celsius","-","-","","-",""
"OC1=C2[NH+]=CC=CC2=CC=C1.COC1=C(C([O-])=O)C(Cl)=CC=C1Cl","-","-","AUTO_968","-","A132545","-","-","","-","-","215.0","Celsius","-","-","-","-","215.0","Celsius","-","-","","-",""
"N#CC1=NN=N[N-]1.CCCC[N+]1(C)CCCC1","-","-","AUTO_970","-","A132545","-","-","-","-","-","215.0","Celsius","-","-","-","-","215.0","Celsius","-","-","","-",""