"SMILES","CASRN","EXTERNALID","N","NAME","ARTICLEID","PUBMEDID","PAGE","TABLE","Melting Point","UNIT {Melting Point}","Decomposition","UNIT {Decomposition}","Glass-transition temperature (Tg)","UNIT {Glass-transition temperature (Tg)}","Melting Point {measured, converted}","UNIT {Melting Point}","Decomposition {measured, converted}","UNIT {Decomposition}","Glass-transition temperature (Tg) {measured, converted}","UNIT {Glass-transition temperature (Tg)}","weight loss","UNIT {weight loss}","Solvent"
"[O-]N(=O)=O.[C@@H](C)([NH3+])C(=O)OCC","-","-","AUTO_625","-","A132545","-","-","","-","-","187.0","Celsius","-","-","-","-","187.0","Celsius","-","-","","-",""
"[Br-].CCCCCCCC[N+]1(C[C@@H]2CCCN2)CCCC1","-","-","AUTO_626","-","A132545","-","-","-","-","-","187.0","Celsius","-","-","-","-","187.0","Celsius","-","-","","-",""
"[Br-].[C@@H]12CC[C@@](C)([C@H](CN(C)CC3=CC=C[N+](CCCC)=C3)[C@@H]1O)C2(C)C","-","-","AUTO_627","-","A139561","24163003","-","-","-","-","187.0","Celsius","-","-","-","-","187.0","Celsius","-","-","","-",""
"[N-]1C=CC=N1.CCCCCCCCCCCC[N+](C)(C)CC","-","-","AUTO_628","-","A139513","16010324","-","-","-","-","187.0","Celsius","-","-","-","-","187.0","Celsius","-","-","","-",""
"FC(F)(F)S(=O)(=O)[N-]S(=O)(=O)C(F)(F)F.[C@H]12CC[C@](C)(C1)[C@@H](OC[N+]3=CC=CC=C3)C2(C)C","-","-","AUTO_629","-","A132545","-","-","-","-","-","187.0","Celsius","-","-","-","-","187.0","Celsius","-","-","","-",""
"[BH4-].CCCC[N+]1(C)CCCC1","-","-","AUTO_631","-","A139575","26223830","-","-","-","-","187.8","Celsius","-","-","-","-","187.8","Celsius","-","-","","-",""
"OCC[NH2+]CCO.[O-]C(=O)C1=CC=CC=C1O","-","-","AUTO_633","-","A139517","16586524","-","","-","-","188.0","Celsius","-","-","-","-","188.0","Celsius","-","-","","-",""
"[O-]N(=O)=O.C([NH+]1C=NC=N1)N2C=NC=N2","-","-","AUTO_639","-","A132545","-","-","","-","-","188.0","Celsius","-","-","-","-","188.0","Celsius","-","-","","-",""
"O=N(=O)C1=C[N-]C=N1.CC[N+](CC)(CC)CC","-","-","AUTO_640","-","A132545","-","-","-","-","-","188.0","Celsius","-","-","-","-","188.0","Celsius","-","-","","-",""
"[Br-].CCCC[N+]1=CC(CN(C)[C@H](CO)CC(C)C)=CC=C1","-","-","AUTO_643","-","A139561","24163003","-","-","-","-","188.0","Celsius","-","-","-","-","188.0","Celsius","-","-","","-",""
"[N-]1C=CN=C1.CCCCCCCCCCCCCC[N+](C)(C)CC","-","-","AUTO_645","-","A132545","-","-","-","-","-","188.0","Celsius","-","-","-","-","188.0","Celsius","-","-","","-",""
"[Cl-].CCCC[NH+]1C[Si](C)(C)O[Si](C)(C)C1","-","-","AUTO_647","-","A132545","-","-","","-","-","188.0","Celsius","-","-","-","-","188.0","Celsius","-","-","","-",""
"F[B-](F)(F)F.CCN1C=[N+](CC)C(=C1N(=O)=O)N(=O)=O","-","-","AUTO_648","-","A132545","-","-","-","-","-","188.0","Celsius","-","-","-","-","188.0","Celsius","-","-","","-",""
"[Br-].CCCCCCCCCCCCN1C=CC=[N+]1CCCCCCCCCCCC","-","-","AUTO_649","-","A132545","-","-","-","-","-","188.1","Celsius","-","-","-","-","188.1","Celsius","-","-","","-",""
"FS(F)(F)(F)(F)[N-]N(=O)=O.NN1C=N[N+](CCCS(F)(F)(F)(F)F)=C1","-","-","AUTO_650","-","A132545","-","-","-","-","-","188.2","Celsius","-","-","-","-","188.2","Celsius","-","-","","-",""
"CC[NH+](C(C)C)C(C)C.[O-]C(=O)C1=CC=CC=C1N=NC2=CC=C(O)C=C2","-","-","AUTO_651","-","A139592","32006830","-","","-","-","188.4","Celsius","-","-","-","-","188.4","Celsius","-","-","","-",""
"C[N+]1=CN(CCN=N#N)N=C1.O=N(=O)C1=NC(=N[N-]1)N(=O)=O","-","-","AUTO_653","-","A139517","16586524","-","-","-","-","189.0","Celsius","-","-","-","-","189.0","Celsius","-","-","","-",""
"[N-]1C=NN=N1.CC[N+](CC)(CC)CC","-","-","AUTO_654","-","A132545","-","-","-","-","-","189.0","Celsius","-","-","-","-","189.0","Celsius","-","-","","-",""
"N#C[BH2-]C#N.C[N+](C)(N)CC=C","-","-","AUTO_655","-","A139550","21246695","-","-","-","-","189.0","Celsius","-","-","-","-","189.0","Celsius","-","-","","-",""
"C[C@@H](N)C([O-])=O.C[N+](C)(C)CCO","-","-","AUTO_656","-","A139512","15998035","-","-","-","-","189.0","Celsius","-","-","-","-","189.0","Celsius","-","-","","-",""
"OCC[NH2+]CCO.OC(C([O-])=O)C1=CC=CC=C1","-","-","AUTO_657","-","A132545","-","-","","-","-","189.0","Celsius","-","-","-","-","189.0","Celsius","-","-","","-",""
"F[P-](F)(F)(F)(F)F.[C@H]12CC[C@](C)(C1)[C@@H](OC[N+]3=CC=CC=C3)C2(C)C","-","-","AUTO_658","-","A132545","-","-","","-","-","189.0","Celsius","-","-","-","-","189.0","Celsius","-","-","","-",""
"O=N(=O)[N-]C#N.C[N+](C)(N)CC#C","-","-","AUTO_659","-","A139542","20135648","-","-","-","-","189.3","Celsius","-","-","-","-","189.3","Celsius","-","-","","-",""
"[O-]Cl(=O)(=O)=O.CN(C)C(=[NH2+])N(C)C","-","-","AUTO_660","-","A132545","-","-","","-","-","189.37","Celsius","-","-","-","-","189.37","Celsius","-","-","","-",""
"COC([O-])=O.CCCC[N+](C)(CCCC)CCCC","-","-","AUTO_663","-","A132545","-","-","-","-","-","190.0","Celsius","-","-","-","-","190.0","Celsius","-","-","","-",""
"C[N+](C)(C)CCO.N[C@@H](CO)C([O-])=O","-","-","AUTO_664","-","A132545","-","-","-","-","-","190.0","Celsius","-","-","-","-","190.0","Celsius","-","-","","-",""
"[O-]C(=O)C(F)(F)F.CCCCCCCC[N+]1=CN(C)C=C1","-","-","AUTO_665","-","A132545","-","-","-","-","-","190.0","Celsius","-","-","-","-","190.0","Celsius","-","-","","-",""
"[C@H](N)(CS)C([O-])=O.CCCC[P+](CCCC)(CCCC)CCCC","-","-","AUTO_667","-","A139525","17665379","-","-","-","-","190.0","Celsius","-","-","-","-","190.0","Celsius","-","-","","-",""
"[N-]=[N+]=[N-].CCCC[N+](C)(CCCC)CCCC","-","-","AUTO_668","-","A132545","-","-","-","-","-","190.0","Celsius","-","-","-","-","190.0","Celsius","-","-","","-",""
"F[B-](F)(F)F.CCCCCCCCSC[N+]1=CN(COCCCC)C=C1","-","-","AUTO_669","-","A132545","-","-","","-","-","190.0","Celsius","-","-","-","-","190.0","Celsius","-","-","","-",""
"CCCCCCCC[N+]1=CC=C(C)C=C1.C1=CC=C(C=C1)[B-](C2=CC=CC=C2)(C3=CC=CC=C3)C4=CC=CC=C4","-","-","AUTO_670","-","A132545","-","-","-","-","-","190.0","Celsius","-","-","-","-","190.0","Celsius","-","-","","-",""
"F[P-](F)(F)(F)(F)F.C[N+]1(CC2=CC=CC(=C2)N(=O)=O)CCCC1","-","-","AUTO_672","-","A132545","-","-","","-","-","310.0","Celsius","-","-","-","-","310.0","Celsius","-","-","","-",""
"[Cl-].CCCCCCCC[NH+]1C[Si](C)(C)O[Si](C)(C)C1","-","-","AUTO_675","-","A132545","-","-","","-","-","190.0","Celsius","-","-","-","-","190.0","Celsius","-","-","","-",""
"[Cl-].CC(C)[C@H](NC(=O)[C@@H]1CCCN1C(=O)OC(C)(C)C)C(=O)NCC[N+]2=CN(C)C=C2","-","-","AUTO_676","-","A139518","16718320","-","-","-","-","190.0","Celsius","-","-","-","-","190.0","Celsius","-","-","","-",""
"CC(O)C([O-])=O.CN(C)C(=[NH2+])N(C)C","-","-","AUTO_677","-","A132545","-","-","","-","-","190.98","Celsius","-","-","-","-","190.98","Celsius","-","-","","-",""
"[O-]N(=O)=O.FC(F)(F)CC[N+]1=CC=CC=N1","-","-","AUTO_680","-","A132545","-","-","-","-","-","191.0","Celsius","-","-","-","-","191.0","Celsius","-","-","","-",""
"FC(F)(F)S(=O)(=O)[N-]S(=O)(=O)C(F)(F)F.CCCCOCN1C=C[N+](CSCCCC)=C1","-","-","AUTO_681","-","A132545","-","-","-","-","-","191.0","Celsius","-","-","-","-","191.0","Celsius","-","-","","-",""
"FC(F)(F)S(=O)(=O)[N-]S(=O)(=O)C(F)(F)F.[C@@H]12CC[C@@](C)([C@H](CN(C)CC3=CC=C[N+](CCCC)=C3)[C@@H]1O)C2(C)C","-","-","AUTO_682","-","A132545","-","-","-","-","-","191.0","Celsius","-","-","-","-","191.0","Celsius","-","-","","-",""
"C1CCC(CC1)[NH2+]C2CCCCC2.[O-]C(=O)C(=CC1=CC=C(O)C=C1)C#N","-","-","AUTO_684","-","A139592","32006830","-","","-","-","191.0","Celsius","-","-","-","-","191.0","Celsius","-","-","","-",""
"[Cl-].CC(C)(C)[NH+]1C[Si](C)(C)O[Si](C)(C)C1","-","-","AUTO_685","-","A139561","24163003","-","","-","-","191.0","Celsius","-","-","-","-","191.0","Celsius","-","-","","-",""
"C[N+](C)(C)C.O=N(=O)C1=CC2=C([N-]N=N2)C=C1","-","-","AUTO_688","-","A139517","16586524","-","-","-","-","192.0","Celsius","-","-","-","-","192.0","Celsius","-","-","","-",""
"CC[NH2+]CC.[O-]C(=O)C(=CC1=CC=C(O)C=C1)C#N","-","-","AUTO_689","-","A132545","-","-","","-","-","192.0","Celsius","-","-","-","-","192.0","Celsius","-","-","","-",""
"O=N(=O)C1=C[N-]N=N1.CCCC[N+](CCCC)(CCCC)CCCC","-","-","AUTO_690","-","A139541","20039339","-","-","-","-","192.0","Celsius","-","-","-","-","192.0","Celsius","-","-","","-",""
"F[B-](F)(F)F.CC[N+]1=CN(C)C(=C1N(=O)=O)N(=O)=O","-","-","AUTO_692","-","A139592","32006830","-","-","-","-","192.0","Celsius","-","-","-","-","192.0","Celsius","-","-","","-",""
"O=N(=O)C1=C[N-]C=N1.CCCC[N+](CCCC)(CCCC)CCCC","-","-","AUTO_693","-","A139572","25504790","-","-","-","-","193.0","Celsius","-","-","-","-","193.0","Celsius","-","-","","-",""
"[O-]S(O)(=O)=O.[C@@H](C)([NH3+])C(O)=O","-","-","AUTO_694","-","A139529","18188483","-","","-","-","193.0","Celsius","-","-","-","-","193.0","Celsius","-","-","","-",""
"[O-]Cl(=O)(=O)=O.NN1C=N[N+](CC#N)=C1","-","-","AUTO_695","-","A139517","16586524","-","-","-","-","193.0","Celsius","-","-","-","-","193.0","Celsius","-","-","","-",""
"C[N+](C)(C)C.NCCC([O-])=O","-","-","AUTO_696","-","A132545","-","-","-","-","-","193.0","Celsius","-","-","-","-","193.0","Celsius","-","-","","-",""
"N#CC1=NN=N[N-]1.CCCCN1C=C[N+](C)=C1","-","-","AUTO_698","-","A139513","16010324","-","-","-","-","193.0","Celsius","-","-","-","-","193.0","Celsius","-","-","","-",""
"O=N(=O)[N-]C#N.C[N+](C)(N)CC#N","-","-","AUTO_699","-","A139542","20135648","-","-","-","-","193.5","Celsius","-","-","-","-","193.5","Celsius","-","-","","-",""
"[Br-].CCCC[N+]1=CC=CC=C1","-","-","AUTO_700","-","A132545","-","-","-","-","-","193.85","Celsius","-","-","-","-","193.85","Celsius","-","-","","-",""
"[Cl-].CCCCCCCCCCCCCC[N+](C)(C)CCCCCCCCCCCCCC","-","-","AUTO_701","-","A139530","18217657","-","-","-","-","194.0","Celsius","-","-","-","-","194.0","Celsius","-","-","","-",""
"CC(C)CC1=CC=C(C=C1)C(C)C([O-])=O.CCCCCCCCCC[N+](C)(C)CCCCCCCCCC","-","-","AUTO_702","-","A132545","-","-","-","-","-","194.0","Celsius","-","-","-","-","194.0","Celsius","-","-","","-",""
"O=N(=O)C1=C[N-]N=N1.CC[N+](CC)(CC)CC","-","-","AUTO_703","-","A132545","-","-","-","-","-","194.0","Celsius","-","-","-","-","194.0","Celsius","-","-","","-",""
"[O-]S(=O)(=O)NC1CCCCC1.CCCCCCCCCCCCCC[P+](CCCCCC)(CCCCCC)CCCCCC","-","-","AUTO_704","-","A139517","16586524","-","-","-","-","194.0","Celsius","-","-","-","-","194.0","Celsius","-","-","","-",""
"OCC[NH+](CCO)CCO.OC(C(O)C([O-])=O)C(O)=O","-","-","AUTO_705","-","A132545","-","-","","-","-","194.0","Celsius","-","-","-","-","194.0","Celsius","-","-","","-",""
"[Cl-].C[Si]1(C)C[NH+](C[Si](C)(C)O1)C2CCCCC2","-","-","AUTO_706","-","A132545","-","-","","-","-","194.0","Celsius","-","-","-","-","194.0","Celsius","-","-","","-",""
"[Br-].CCCCCC[N+]1=CC=CC=C1","-","-","AUTO_708","-","A132545","-","-","-","-","-","194.85","Celsius","-","-","-","-","194.85","Celsius","-","-","","-",""
"C[N+](C)(C)CCO.[C@H]1(CCCN1)C([O-])=O","-","-","AUTO_710","-","A132545","-","-","-","-","-","195.0","Celsius","-","-","-","-","195.0","Celsius","-","-","","-",""
"[O-]S(=O)(=O)C(F)(F)F.CCCCCCCC1=NC(=NO1)C2=CC=[N+](C)C=C2","-","-","AUTO_714","-","A132545","-","-","-","-","-","195.0","Celsius","-","-","-","-","195.0","Celsius","-","-","","-",""
"[O-]S(=O)(=O)C(F)(F)F.CCCCN1C=C[N+](CCCC)=N1","-","-","AUTO_715","-","A139546","20499940","-","-","-","-","195.0","Celsius","-","-","-","-","195.0","Celsius","-","-","","-",""
"C[N+](C)(C)C.OCCN1CCN(CCCS([O-])(=O)=O)CC1","-","-","AUTO_717","-","A132545","-","-","-","-","-","195.0","Celsius","-","-","-","-","195.0","Celsius","-","-","","-",""
"[I-].CCCCCN1C=CC=[N+]1CCCCC","-","-","AUTO_718","-","A132545","-","-","-","-","-","195.0","Celsius","-","-","-","-","195.0","Celsius","-","-","","-",""
"C[C@H]([NH3+])C1=CC=CC=C1.[O-]C(=O)C(=CC1=CC=C(O)C=C1)C#N","-","-","AUTO_719","-","A139592","32006830","-","","-","-","195.0","Celsius","-","-","-","-","195.0","Celsius","-","-","","-",""
"[Cl-].CN1C=C[N+](CCNC(=O)[C@H](CC2=CC=CC=C2)NC(=O)[C@@H]3CCCN3C(=O)OC(C)(C)C)=C1","-","-","AUTO_720","-","A132545","-","-","-","-","-","195.0","Celsius","-","-","-","-","195.0","Celsius","-","-","","-",""
"F[B-](F)(F)F.CCCCCCCCCCCCN1C=C[N+](CCCCCCCCCCCC)=N1","-","-","AUTO_721","-","A132545","-","-","-","-","-","195.7","Celsius","-","-","-","-","195.7","Celsius","-","-","","-",""
"[I-].CCCCN1C=CC=[N+]1CCCC","-","-","AUTO_722","-","A132545","-","-","-","-","-","195.8","Celsius","-","-","-","-","195.8","Celsius","-","-","","-",""
"[Br-].CCCCCCCCCCN1C=C[N+](CCCCCCCCCC)=N1","-","-","AUTO_724","-","A132545","-","-","-","-","-","195.9","Celsius","-","-","-","-","195.9","Celsius","-","-","","-",""
"[N-]=[N+]=[N-].CCCC[N+](CCCC)(CCCC)CCCC","-","-","AUTO_725","-","A139546","20499940","-","-","-","-","196.0","Celsius","-","-","-","-","196.0","Celsius","-","-","","-",""
"[I-].CCCCN1C=C[N+](C)=N1","-","-","AUTO_726","-","A139517","16586524","-","-","-","-","196.0","Celsius","-","-","-","-","196.0","Celsius","-","-","","-",""
"[NH2+]1C=NC=N1.[O-]C1=C(C=C(C=C1N(=O)=O)N(=O)=O)N(=O)=O","-","-","AUTO_727","-","A132545","-","-","","-","-","196.0","Celsius","-","-","-","-","196.0","Celsius","-","-","","-",""
"COS([O-])(=O)=O.CN1C=C([N+](C)=C1C)N(=O)=O","-","-","AUTO_730","-","A132545","-","-","-","-","-","196.0","Celsius","-","-","-","-","196.0","Celsius","-","-","","-",""
"[Br-].CCCC[N+]1(C[C@@H]2CCCN2)CCCC1","-","-","AUTO_731","-","A132545","-","-","-","-","-","196.0","Celsius","-","-","-","-","196.0","Celsius","-","-","","-",""
"[Br-].CCCCCCCCOC1=CC(OCCCCCCCC[N+](C)(C)C)=CC=C1","-","-","AUTO_732","-","A139555","22335767","-","-","-","-","196.0","Celsius","-","-","-","-","196.0","Celsius","-","-","","-",""
"CC(O)C([O-])=O.C[NH+]1C=CN=C1","-","-","AUTO_734","-","A132545","-","-","","-","-","196.5","Celsius","-","-","-","-","196.5","Celsius","-","-","","-",""
"N#C[N-]C#N.CCCCCCCCCCCCN1C=C[N+](CCCCCCCCCCCC)=N1","-","-","AUTO_735","-","A132545","-","-","-","-","-","196.9","Celsius","-","-","-","-","196.9","Celsius","-","-","","-",""
"[Cl-].CC(C)CC([NH+](C)C)C1(CCC1)C2=CC=C(Cl)C=C2","-","-","AUTO_736","-","A132545","-","-","","-","-","196.93","Celsius","-","-","-","-","196.93","Celsius","-","-","","-",""
"[Br-].COCC[N+]1(C)CCOC1","-","-","AUTO_737","-","A139530","18217657","-","-","-","-","197.0","Celsius","-","-","-","-","197.0","Celsius","-","-","","-",""
"O=C1[N-]S(=O)(=O)C2=C1C=CC=C2.CCCCCCCCCCCCCC[P+](CCCCCC)(CCCCCC)CCCCCC","-","-","AUTO_742","-","A139515","16389616","-","-","-","-","197.0","Celsius","-","-","-","-","197.0","Celsius","-","-","","-",""
"C[NH+]1C=CN=C1.OP(O)(=O)OP([O-])(O)=O","-","-","AUTO_743","-","A132545","-","-","","-","-","197.0","Celsius","-","-","-","-","197.0","Celsius","-","-","","-",""
"F[P-](F)(F)(F)(F)F.C[N+]1(CC2=CC=CC=C2F)CCCC1","-","-","AUTO_744","-","A132545","-","-","","-","-","340.0","Celsius","-","-","-","-","340.0","Celsius","-","-","","-",""
"[Cl-].CCCCCC[NH+]1C[Si](C)(C)O[Si](C)(C)C1","-","-","AUTO_745","-","A139520","17047790","-","","-","-","197.0","Celsius","-","-","-","-","197.0","Celsius","-","-","","-",""
"[Br-].CCCC[N+]1=CC(C)=CC(C)=C1","-","-","AUTO_746","-","A132545","-","-","-","-","-","197.85","Celsius","-","-","-","-","197.85","Celsius","-","-","","-",""
"[Cl-].CCCCCCCCCC[N+](C)(C)CCCCCCCCCC","-","-","AUTO_747","-","A132545","-","-","-","-","-","198.0","Celsius","-","-","-","-","198.0","Celsius","-","-","","-",""
"CC([O-])=O.CC[N+](C)(CC)CC","-","-","AUTO_748","-","A132545","-","-","-","-","-","198.0","Celsius","-","-","-","-","198.0","Celsius","-","-","","-",""
"C[N+](C)(C)C.[N-]1C=NN=N1","-","-","AUTO_749","-","A132545","-","-","-","-","-","198.0","Celsius","-","-","-","-","198.0","Celsius","-","-","","-",""
"F[B-](F)(F)F.[C@H]12CC[C@](C)(C1)[C@@H](OC[N+]3=CC=CC=C3)C2(C)C","-","-","AUTO_751","-","A132545","-","-","","-","-","198.0","Celsius","-","-","-","-","198.0","Celsius","-","-","","-",""
"NCC([O-])=O.C[N+](C)(C)CCO[C@@H]1O[C@H](CO)[C@@H](O)[C@H](O)[C@H]1O","-","-","AUTO_752","-","A139517","16586524","-","-","-","-","198.0","Celsius","-","-","-","-","198.0","Celsius","-","-","","-",""
"N[C@@H](CO)C([O-])=O.C[N+](C)(C)CCO[C@@H]1O[C@H](CO)[C@@H](O)[C@H](O)[C@H]1O","-","-","AUTO_753","-","A132545","-","-","-","-","-","198.0","Celsius","-","-","-","-","198.0","Celsius","-","-","","-",""
"[Br-].CCCC[N+]1=CC=CC(C)=C1","-","-","AUTO_754","-","A132545","-","-","-","-","-","198.85","Celsius","-","-","-","-","198.85","Celsius","-","-","","-",""
"[Br-].CCCCCC[N+]1=CC=CC(C)=C1","-","-","AUTO_755","-","A132545","-","-","-","-","-","198.85","Celsius","-","-","-","-","198.85","Celsius","-","-","","-",""
"[Br-].CCCCCCCCCCCCN1C=C[N+](CCCCCCCCCCCC)=N1","-","-","AUTO_756","-","A132545","-","-","-","-","-","198.9","Celsius","-","-","-","-","198.9","Celsius","-","-","","-",""
"CN1N=N[N+](C)=C1C.O=N(=O)C1=NC(=N[N-]1)N(=O)=O","-","-","AUTO_760","-","A132545","-","-","-","-","-","199.0","Celsius","-","-","-","-","199.0","Celsius","-","-","","-",""
"CSC(=O)C1=CC=CC2=C1SN=[N+]2C.FC(F)(F)S(=O)(=O)[N-]S(=O)(=O)C(F)(F)F","-","-","AUTO_765","-","A132545","-","-","-","-","-","199.0","Celsius","-","-","-","-","199.0","Celsius","-","-","","-",""
"N#C[N-]C#N.C[N+](C)(N)CC=C","-","-","AUTO_766","-","A139542","20135648","-","-","-","-","199.2","Celsius","-","-","-","-","199.2","Celsius","-","-","","-",""
"[O-]C(=O)C1=C(O)C=CC=C1.CCCCOC[NH+]1C=CN=C1","-","-","AUTO_767","-","A132545","-","-","","-","-","199.5","Celsius","-","-","-","-","199.5","Celsius","-","-","","-",""
"[I-].CCCN1C=CC=[N+]1CCC","-","-","AUTO_768","-","A132545","-","-","-","-","-","199.6","Celsius","-","-","-","-","199.6","Celsius","-","-","","-",""
"[O-]N(=O)=O.CCCC[N+](CCCC)(CCCC)CCCC","-","-","AUTO_772","-","A139572","25504790","-","-","-","-","200.0","Celsius","-","-","-","-","200.0","Celsius","-","-","","-",""
"[Cl-].C[C@H](C1=CC=CC=C1)[N+]2=CC=CC=C2","-","-","AUTO_779","-","A132545","-","-","-","-","-","200.0","Celsius","-","-","-","-","200.0","Celsius","-","-","","-",""
"[O-]S(=O)(=O)C(F)(F)F.CCCC[N+]1=CC=C(C)C=C1","-","-","AUTO_781","-","A132545","-","-","-","-","-","200.0","Celsius","-","-","-","-","200.0","Celsius","-","-","","-",""
"[O-]S(O)(=O)=O.CC[NH+]1C=CN=C1","-","-","AUTO_787","-","A139517","16586524","-","","-","-","200.0","Celsius","-","-","-","-","200.0","Celsius","-","-","","-",""
"F[B-](F)(F)F.CCCCCOCN1C=C[N+](COCCCCC)=C1","-","-","AUTO_790","-","A132545","-","-","","-","-","200.0","Celsius","-","-","-","-","200.0","Celsius","-","-","","-",""
"O=N(=O)C1=C[N-]C=N1.CCCC[N+]1=CN(C)C=C1","-","-","AUTO_795","-","A132545","-","-","-","-","-","200.0","Celsius","-","-","-","-","200.0","Celsius","-","-","","-",""
"[Br-].CCCCCCCCCCCCCCCCCCSCC[N+]1=CN(C)C=C1","-","-","AUTO_801","-","A132545","-","-","-","-","-","200.0","Celsius","-","-","-","-","200.0","Celsius","-","-","","-",""
"F[B-](F)(F)F.CCCCCCCCCCCCCCCCCCSCC[N+]1=CN(C)C=C1","-","-","AUTO_802","-","A132545","-","-","","-","-","200.0","Celsius","-","-","-","-","200.0","Celsius","-","-","","-",""
"[Br-].CCCCCCCCCCCCSCC[N+]1=CN(C)C=C1","-","-","AUTO_803","-","A132545","-","-","-","-","-","200.0","Celsius","-","-","-","-","200.0","Celsius","-","-","","-",""
"[Br-].CCCCCCCCCCCCCCSCC[N+]1=CN(C)C=C1","-","-","AUTO_804","-","A132545","-","-","-","-","-","200.0","Celsius","-","-","-","-","200.0","Celsius","-","-","","-",""
"[Br-].CCCCCCCCCCCCCCCCSCC[N+]1=CN(C)C=C1","-","-","AUTO_805","-","A132545","-","-","-","-","-","200.0","Celsius","-","-","-","-","200.0","Celsius","-","-","","-",""
"N#CC1=NN=N[N-]1.CCCC[P+](C)(CCCC)CCCC","-","-","AUTO_806","-","A139507","15252794","-","-","-","-","200.0","Celsius","-","-","-","-","200.0","Celsius","-","-","","-",""
"[Cl-].CN1C=C[N+](CCNC(=O)[C@@H]2CCCN2C(=O)[C@@H]3CCCN3C(=O)OC(C)(C)C)=C1","-","-","AUTO_809","-","A139520","17047790","-","-","-","-","200.0","Celsius","-","-","-","-","200.0","Celsius","-","-","","-",""
"NCC([O-])=O.CCCCCCCC[N+]1=CN(C)C=C1","-","-","AUTO_810","-","A139574","25965417","-","-","-","-","200.84","Celsius","-","-","-","-","200.84","Celsius","-","-","","-",""
"[Br-].CCCCCC[N+]1=CC(C)=CC(C)=C1","-","-","AUTO_811","-","A132545","-","-","-","-","-","200.85","Celsius","-","-","-","-","200.85","Celsius","-","-","","-",""
"[Cl-].CCCCCCCCCCCCCCCCCC[N+](C)(C)CCCCCCCCCCCCCCCCCC","-","-","AUTO_812","-","A132545","-","-","-","-","-","201.0","Celsius","-","-","-","-","201.0","Celsius","-","-","","-",""