"SMILES","CASRN","EXTERNALID","N","NAME","ARTICLEID","PUBMEDID","PAGE","TABLE","Melting Point","UNIT {Melting Point}","Decomposition","UNIT {Decomposition}","Glass-transition temperature (Tg)","UNIT {Glass-transition temperature (Tg)}","Melting Point {measured, converted}","UNIT {Melting Point}","Decomposition {measured, converted}","UNIT {Decomposition}","Glass-transition temperature (Tg) {measured, converted}","UNIT {Glass-transition temperature (Tg)}","weight loss","UNIT {weight loss}","Solvent"
"N#CCCN1C(C(O)C)=[N+](C=2C1=CC=CC2)CC(=O)C3=CC=CC=C3.[Br-]","-","-","AUTO_1119","C0720_A0004","A132065","-","-","-","183.0","Celsius","-","-","-","-","183.0","Celsius","-","-","-","-","","-",""
"O=C(C1=CC=CC=C1)C[N+]=2C3=CC=CC=C3N(C2C)N.[Br-]","-","-","AUTO_1120","C0617_A0004","A132065","-","-","-","230.0","Celsius","-","-","-","-","230.0","Celsius","-","-","-","-","","-",""
"O=C(C1=CC=CS1)C[N+]2=C(C)N(C=3C2=CC=CC3)N.[Br-]","-","-","AUTO_1121","C0252_A0004","A132065","-","-","-","222.0","Celsius","-","-","-","-","222.0","Celsius","-","-","-","-","","-",""
"O=C(C1=CC=CC=C1)C[N+]=2C3=CC=CC=C3N(C2C)N=CC4=CC=CC=C4.[Br-]","-","-","AUTO_1122","C0123_A0004","A132065","-","-","-","220.0","Celsius","-","-","-","-","220.0","Celsius","-","-","-","-","","-",""
"O=C(C1=CC=CC=C1)C[N+]=2C3=CC=CC=C3N(C2C)NCC4=CC=CC=C4.[Br-]","-","-","AUTO_1123","C0357_A0004","A132065","-","-","-","219.0","Celsius","-","-","-","-","219.0","Celsius","-","-","-","-","","-",""
"O=C(C1=CC=CC=C1)C[N+]2=C(C)N(C=3C2=CC=CC3)N=CC4=CC=C(C=C4)N(=O)=O.[Br-]","-","-","AUTO_1124","C0636_A0004","A132065","-","-","-","238.0","Celsius","-","-","-","-","238.0","Celsius","-","-","-","-","","-",""
"O=C(C1=CC=C(C=C1)N(=O)=O)C[N+]2=C(C)N(C=3C2=CC=CC3)NCC4=CC=CC=C4.[Br-]","-","-","AUTO_1125","C0724_A0004","A132065","-","-","-","229.0","Celsius","-","-","-","-","229.0","Celsius","-","-","-","-","","-",""
"CCN1C=[N+](C=2C1=CC=CC2)CC(=O)C3=CC=CC=C3.[Br-]","-","-","AUTO_1126","C0908_A0004","A132065","-","-","-","113.0","Celsius","-","-","-","-","113.0","Celsius","-","-","-","-","","-",""
"C=CCN1C=[N+](C=2C1=CC=CC2)CC(=O)C3=CC=CC=C3.[Br-]","-","-","AUTO_1127","C0334_A0004","A132065","-","-","-","106.0","Celsius","-","-","-","-","106.0","Celsius","-","-","-","-","","-",""
"OCN1C=[N+](C=2C1=CC=CC2)CC(=O)C3=CC=CC=C3.[Br-]","-","-","AUTO_1128","C0170_A0004","A132065","-","-","-","183.0","Celsius","-","-","-","-","183.0","Celsius","-","-","-","-","","-",""
"C=CCN1C=[N+](C=2C1=CC=CC2)CC(=O)C3=CC=C(C=C3)Br.[Br-]","-","-","AUTO_1129","C0078_A0004","A132065","-","-","-","215.0","Celsius","-","-","-","-","215.0","Celsius","-","-","-","-","","-",""
"CCN1C=[N+](C=2C1=CC=CC2)CC(=O)C3=CC=C(C=C3)Br.[Br-]","-","-","AUTO_1130","C0817_A0004","A132065","-","-","-","198.0","Celsius","-","-","-","-","198.0","Celsius","-","-","-","-","","-",""
"BrC(=C)CN1C=[N+](C=2C1=CC=CC2)CC(=O)C3=CC=CC=C3.[Br-]","-","-","AUTO_1131","C0153_A0004","A132065","-","-","-","164.0","Celsius","-","-","-","-","164.0","Celsius","-","-","-","-","","-",""
"OCN1C=[N+](C=2C1=CC=CC2)CC(=O)C3=CC=C(C=C3)Br.[Br-]","-","-","AUTO_1132","C0626_A0004","A132065","-","-","-","239.0","Celsius","-","-","-","-","239.0","Celsius","-","-","-","-","","-",""
"BrC(=C)CN1C=[N+](C=2C1=CC=CC2)CC(=O)C3=CC=C(C=C3)Br.[Br-]","-","-","AUTO_1133","C0006_A0004","A132065","-","-","-","142.0","Celsius","-","-","-","-","142.0","Celsius","-","-","-","-","","-",""
"BrC1=CC=C(C=C1)C(=O)C[N+]2=CN(C=3C2=CC=CC3)CC4=CC=CC=C4.[Br-]","-","-","AUTO_1134","C0321_A0004","A132065","-","-","-","126.0","Celsius","-","-","-","-","126.0","Celsius","-","-","-","-","","-",""
"O=C1N=C2C(C(=O)N1CCC[N+]3=CN(C=4C3=CC=CC4)C)=NC=5C(N2C6=CC=CC=C6)=CC=CC5.[Br-]","-","-","AUTO_1135","C0202_A0004","A132065","-","-","-","271.0","Celsius","-","-","-","-","271.0","Celsius","-","-","-","-","","-",""
"CC(=O)C[N+]1=CN(C=2C1=CC=CC2)CC3=CC=CC=C3.[Br-]","-","-","AUTO_1136","C0380_A0004","A132065","-","-","-","129.0","Celsius","-","-","-","-","129.0","Celsius","-","-","-","-","","-",""
"CCOC(=O)C[N+]1=C(C)N(C=2C1=CC=CC2)CC3=CC=CC=C3.[Br-]","-","-","AUTO_1137","C1027_A0004","A132065","-","-","-","242.0","Celsius","-","-","-","-","242.0","Celsius","-","-","-","-","","-",""
"CCOC(=O)CN1C(C)=[N+](C=2C1=CC=CC2)CC(=O)OCC.[Br-]","-","-","AUTO_1138","C0539_A0004","A132065","-","-","-","250.0","Celsius","-","-","-","-","250.0","Celsius","-","-","-","-","","-",""
"CC(=O)C[N+]1=CN(C=2C1=CC=CC2)C.[Br-]","-","-","AUTO_1139","C1066_A0004","A132065","-","-","-","119.0","Celsius","-","-","-","-","119.0","Celsius","-","-","-","-","","-",""
"CN1C2=CC=CC=C2[N+](=C1SC3=CC=CC=C3)CC4=CC=CC=C4.[Br-]","-","-","AUTO_1140","C0666_A0004","A132065","-","-","-","162.0","Celsius","-","-","-","-","162.0","Celsius","-","-","-","-","","-",""
"C=CCN1C=[N+](C=2C1=CC=CC2)CC=C.[Br-]","-","-","AUTO_1141","C0270_A0004","A132065","-","-","-","96.0","Celsius","-","-","-","-","96.0","Celsius","-","-","-","-","","-",""
"CCOCCN1C=[N+](C=2C1=CC=CC2)CC=CC.[Br-]","-","-","AUTO_1142","C0830_A0004","A132065","-","-","-","107.0","Celsius","-","-","-","-","107.0","Celsius","-","-","-","-","","-",""
"C=CCN1C=[N+](C=2C1=CC=CC2)CC#C.[Br-]","-","-","AUTO_1143","C0815_A0004","A132065","-","-","-","178.0","Celsius","-","-","-","-","178.0","Celsius","-","-","-","-","","-",""
"C=CCN1C=[N+](C=2C1=CC=CC2)CC3=CC=CC=C3.[Br-]","-","-","AUTO_1144","C0354_A0004","A132065","-","-","-","201.0","Celsius","-","-","-","-","201.0","Celsius","-","-","-","-","","-",""
"CCOCCN1C=[N+](C=2C1=CC=C(C2)C)CC=CC.[Br-]","-","-","AUTO_1145","C0219_A0004","A132065","-","-","-","77.0","Celsius","-","-","-","-","77.0","Celsius","-","-","-","-","","-",""
"C=CC[N+]1=CN(C=2C1=CC(C)=CC2)CCOCC.[Br-]","-","-","AUTO_1146","C0610_A0004","A132065","-","-","-","128.0","Celsius","-","-","-","-","128.0","Celsius","-","-","-","-","","-",""
"CC[N+]1=CN(C=2C1=CC=CC2)CCC[Si](C)(C)C.[Br-]","-","-","AUTO_1147","C0765_A0004","A132065","-","-","-","208.0","Celsius","-","-","-","-","208.0","Celsius","-","-","-","-","","-",""
"C=CC[N+]1=CN(C=2C1=CC=CC2)CCC[Si](C)(C)C.[Br-]","-","-","AUTO_1148","C0684_A0004","A132065","-","-","-","125.0","Celsius","-","-","-","-","125.0","Celsius","-","-","-","-","","-",""
"C=CCN1C=[N+](C=2C1=CC=CC2)CC3=CC=C(C=C3)Br.[Br-]","-","-","AUTO_1149","C0085_A0004","A132065","-","-","-","179.0","Celsius","-","-","-","-","179.0","Celsius","-","-","-","-","","-",""
"CCOCCN1C=[N+](C=2C1=CC=CC2)CCC3=CC=CC=C3.[Br-]","-","-","AUTO_1150","C1005_A0004","A132065","-","-","-","86.0","Celsius","-","-","-","-","86.0","Celsius","-","-","-","-","","-",""
"C=CCN1C=[N+](C=2C1=CC=CC2)CC#C[Si](C)(C)C.[Br-]","-","-","AUTO_1151","C0248_A0004","A132065","-","-","-","145.0","Celsius","-","-","-","-","145.0","Celsius","-","-","-","-","","-",""
"C#CC[N+]1=CN(C=2C1=CC=CC2)CCC[Si](C)(C)C.[Br-]","-","-","AUTO_1152","C1103_A0004","A132065","-","-","-","166.0","Celsius","-","-","-","-","166.0","Celsius","-","-","-","-","","-",""
"COCCN1C=[N+](C=2C1=CC=C(C2)C)CCC3=CC=CC=C3.[Br-]","-","-","AUTO_1153","C0271_A0004","A132065","-","-","-","122.0","Celsius","-","-","-","-","122.0","Celsius","-","-","-","-","","-",""
"C[Si](CCCN1C=[N+](C=2C1=CC=CC2)CC3=CC=CC=C3)(C)C.[Br-]","-","-","AUTO_1154","C0114_A0004","A132065","-","-","-","129.0","Celsius","-","-","-","-","129.0","Celsius","-","-","-","-","","-",""
"CC1=CC=C2C(=C1)[N+](CCC3=CC=CC=C3)=CN2CCC4=CC=CC=C4.[Br-]","-","-","AUTO_1155","C0426_A0004","A132065","-","-","-","123.0","Celsius","-","-","-","-","123.0","Celsius","-","-","-","-","","-",""
"COC1=CC=CC=C1C[N+]2=CN(C=3C2=CC=CC3)CCC[Si](C)(C)C.[Br-]","-","-","AUTO_1156","C0930_A0004","A132065","-","-","-","176.0","Celsius","-","-","-","-","176.0","Celsius","-","-","-","-","","-",""
"O=N(=O)C1=CC=C2C(=C1)[N+](CCC3=CC=CC=C3)=CN2CCC4=CC=CC=C4.[Br-]","-","-","AUTO_1157","C0884_A0004","A132065","-","-","-","180.0","Celsius","-","-","-","-","180.0","Celsius","-","-","-","-","","-",""
"C1=CC=C2C(=C1)N(C=[N+]2C34CC5CC(C3)CC(C4)C5)C67CC8CC(C6)CC(C7)C8.[Br-]","-","-","AUTO_1158","C0060_A0004","A132065","-","-","-","298.0","Celsius","-","-","-","-","298.0","Celsius","-","-","-","-","","-",""
"O=C(C1=CC=CS1)C[N+]2=CN(C=3C2=CC=CC3)CC4=CC=CC=C4.[Br-]","-","-","AUTO_1159","C0450_A0004","A132065","-","-","-","205.0","Celsius","-","-","-","-","205.0","Celsius","-","-","-","-","","-",""
"CCCCCCCC[N+]1=C(C)N(C=2C1=CC(Cl)=C(C2)Cl)CC(=O)O.[Br-]","-","-","AUTO_1160","C0211_A0004","A132065","-","-","-","215.0","Celsius","-","-","-","-","215.0","Celsius","-","-","-","-","","-",""
"CCCCCC[N+]=1C2=CC(Cl)=C(C=C2N(C1C)CCCC(=O)O)Cl.[Br-]","-","-","AUTO_1161","C0262_A0004","A132065","-","-","-","253.0","Celsius","-","-","-","-","253.0","Celsius","-","-","-","-","","-",""
"CCCCCCC[N+]=1C2=CC(Cl)=C(C=C2N(C1C)CCCC(=O)O)Cl.[Br-]","-","-","AUTO_1162","C1064_A0004","A132065","-","-","-","247.0","Celsius","-","-","-","-","247.0","Celsius","-","-","-","-","","-",""
"CCCCCCCC[N+]1=C(C)N(C=2C1=CC(Cl)=C(C2)Cl)CCC(=O)O.[Br-]","-","-","AUTO_1163","C0127_A0004","A132065","-","-","-","201.0","Celsius","-","-","-","-","201.0","Celsius","-","-","-","-","","-",""
"CCCCCCCC[N+]=1C2=CC(Cl)=C(C=C2N(C1C)CCCCC(=O)O)Cl.[Br-]","-","-","AUTO_1164","C0110_A0004","A132065","-","-","-","215.0","Celsius","-","-","-","-","215.0","Celsius","-","-","-","-","","-",""
"CCCCCCCC[N+]1=C(C)N(C=2C1=CC(Cl)=C(C2)Cl)CCCCCC(=O)O.[Br-]","-","-","AUTO_1165","C0956_A0004","A132065","-","-","-","255.0","Celsius","-","-","-","-","255.0","Celsius","-","-","-","-","","-",""
"CCCCCCCCCCC[N+]=1C2=CC(Cl)=C(C=C2N(C1C)CCCC(=O)O)Cl.[Br-]","-","-","AUTO_1166","C0309_A0004","A132065","-","-","-","157.0","Celsius","-","-","-","-","157.0","Celsius","-","-","-","-","","-",""
"CCCCCC[N+]=1C2=CC(Cl)=C(C=C2N(C1C=CC=C3N(CCCC(=O)O)C=4C(N3CCCCCC)=CC(=C(C4)Cl)Cl)CCCC(=O)O)Cl.[Br-]","-","-","AUTO_1167","C0920_A0004","A132065","-","-","-","146.0","Celsius","-","-","-","-","146.0","Celsius","-","-","-","-","","-",""
"CCCCCCCC[N+]=1C2=CC(Cl)=C(C=C2N(C1C=CC=C3N(CCC(=O)O)C=4C(N3CCCCCCCC)=CC(=C(C4)Cl)Cl)CCC(=O)O)Cl.[Br-]","-","-","AUTO_1168","C0632_A0004","A132065","-","-","-","114.0","Celsius","-","-","-","-","114.0","Celsius","-","-","-","-","","-",""
"CCCCCCCN1C2=CC(Cl)=C(C=C2N(C1=CC=CC3=[N+](CCCCCCC)C=4C(N3CCCC(=O)O)=CC(=C(C4)Cl)Cl)CCCC(=O)O)Cl.[Br-]","-","-","AUTO_1169","C0680_A0004","A132065","-","-","-","128.0","Celsius","-","-","-","-","128.0","Celsius","-","-","-","-","","-",""
"CCCCCCCCCC[N+]=1C2=CC(Cl)=C(C=C2N(C1C=CC=C3N(CCCC(=O)O)C=4C(N3CCCCCCCCCC)=CC(=C(C4)Cl)Cl)CCCC(=O)O)Cl.[Br-]","-","-","AUTO_1170","C0024_A0004","A132065","-","-","-","107.0","Celsius","-","-","-","-","107.0","Celsius","-","-","-","-","","-",""
"CC(CN1C=[N+](C=2C1=CC=CC2)C)C.[Br-]","-","-","AUTO_1171","C0612_A0004","A132065","-","-","-","186.0","Celsius","-","-","-","-","186.0","Celsius","-","-","-","-","","-",""
"CC(N1C=[N+](C=2C1=CC=CC2)C(C)C)C.[Br-]","-","-","AUTO_1172","C0968_A0004","A132065","-","-","-","125.0","Celsius","-","-","-","-","125.0","Celsius","-","-","-","-","","-",""
"CC(CN1C=[N+](C=2C1=CC=CC2)CC(C)C)C.[Br-]","-","-","AUTO_1173","C0851_A0004","A132065","-","-","-","178.0","Celsius","-","-","-","-","178.0","Celsius","-","-","-","-","","-",""
"CCC[N+]1=C(N)N(C=2C1=CC=CC2)CC3=CC=CC=C3.[Br-]","-","-","AUTO_1174","C0837_A0004","A132065","-","-","-","306.0","Celsius","-","-","-","-","306.0","Celsius","-","-","-","-","","-",""
"OC(=O)C[N+]1=C(N)N(C=2C1=CC=CC2)CC3=CC=CC=C3.[Br-]","-","-","AUTO_1175","C0622_A0004","A132065","-","-","-","160.0","Celsius","-","-","-","-","160.0","Celsius","-","-","-","-","","-",""
"CNC(=O)C[N+]1=C(N)N(C=2C1=CC=CC2)CC3=CC=CC=C3.[Br-]","-","-","AUTO_1176","C0468_A0004","A132065","-","-","-","272.0","Celsius","-","-","-","-","272.0","Celsius","-","-","-","-","","-",""
"O=C(C[N+]=1C2=CC=CC=C2N(C1N)CC3=CC=CC=C3)NC4=CC=CC=C4.[Br-]","-","-","AUTO_1177","C0030_A0004","A132065","-","-","-","296.0","Celsius","-","-","-","-","296.0","Celsius","-","-","-","-","","-",""
"OCCCCCC[N+]1=C(N)N(C=2C1=CC=CC2)CC3=CC=CC=C3.[Br-]","-","-","AUTO_1178","C0447_A0004","A132065","-","-","-","274.0","Celsius","-","-","-","-","274.0","Celsius","-","-","-","-","","-",""
"BrCCCCCCCC[N+]1=C(N)N(C=2C1=CC=CC2)CC3=CC=CC=C3.[Br-]","-","-","AUTO_1179","C0436_A0004","A132065","-","-","-","257.0","Celsius","-","-","-","-","257.0","Celsius","-","-","-","-","","-",""
"CCCCCCCCCCCC[N+]=1C2=CC=CC=C2N(C1N)CC3=CC=CC=C3.[Br-]","-","-","AUTO_1180","C0736_A0004","A132065","-","-","-","233.0","Celsius","-","-","-","-","233.0","Celsius","-","-","-","-","","-",""
"CCCCCCCCCCCC[N+]1=C(N)N(C=2C1=CC=CC2)CC3=CC=C(C=C3)C.[Br-]","-","-","AUTO_1181","C0537_A0004","A132065","-","-","-","243.0","Celsius","-","-","-","-","243.0","Celsius","-","-","-","-","","-",""
"CCCCCCCCCCCC[N+]1=C(N)N(C=2C1=CC=CC2)CC3=CC=C(C=C3)OC.[Br-]","-","-","AUTO_1182","C0997_A0004","A132065","-","-","-","263.0","Celsius","-","-","-","-","263.0","Celsius","-","-","-","-","","-",""
"CCCCCCCCCCCC[N+]=1C2=CC=CC=C2N(C1N)CCCC3=CC=CC=C3.[Br-]","-","-","AUTO_1183","C0390_A0004","A132065","-","-","-","228.0","Celsius","-","-","-","-","228.0","Celsius","-","-","-","-","","-",""
"CCCCCCCCCCCC[N+]1=C(N)N(C=2C1=CC=CC2)CC3=CC=C(C=C3)Cl.[Br-]","-","-","AUTO_1184","C0836_A0004","A132065","-","-","-","272.0","Celsius","-","-","-","-","272.0","Celsius","-","-","-","-","","-",""
"BrCCCCCCCCCCCC[N+]=1C2=CC=CC=C2N(C1N)CC3=CC=CC=C3.[Br-]","-","-","AUTO_1185","C0969_A0004","A132065","-","-","-","240.0","Celsius","-","-","-","-","240.0","Celsius","-","-","-","-","","-",""
"CCCCCCCCCCCC[N+]1=C(N)N(C=2C1=CC=CC2)CC3=CC=C(C(=C3)Cl)Cl.[Br-]","-","-","AUTO_1186","C1000_A0004","A132065","-","-","-","275.0","Celsius","-","-","-","-","275.0","Celsius","-","-","-","-","","-",""
"O=C(OC(C)(C)C)NCCCCCCCCCCC[N+]=1C2=CC=CC=C2N(C1N)CC3=CC=CC=C3.[Br-]","-","-","AUTO_1187","C0978_A0004","A132065","-","-","-","216.0","Celsius","-","-","-","-","216.0","Celsius","-","-","-","-","","-",""
"O=C1N(CCCCCCCCCCCC[N+]=2C3=CC=CC=C3N(C2N)CC4=CC=CC=C4)C(=O)C5=C1C=CC=C5.[Br-]","-","-","AUTO_1188","C0655_A0004","A132065","-","-","-","200.0","Celsius","-","-","-","-","200.0","Celsius","-","-","-","-","","-",""
"O=C(C1=CC=CC=C1)CN2C=C[N+](=C2)CC(=O)C3=CC=CC=C3.[Br-]","-","-","AUTO_1189","C0296_A0004","A132065","-","-","-","265.0","Celsius","-","-","-","-","265.0","Celsius","-","-","-","-","","-",""
"ClC1=CC=C2C(=C1)[N+](C)=CN2C.[Br-]","-","-","AUTO_1190","C0301_A0004","A132065","-","-","-","275.0","Celsius","-","-","-","-","275.0","Celsius","-","-","-","-","","-",""
"CC(C(=O)C1=CC=C(C=C1)C2=CC=CC=C2)N3C=C[N+](=C3)C(C(=O)C4=CC=C(C=C4)C5=CC=CC=C5)C.[Br-]","-","-","AUTO_1191","C0087_A0004","A132065","-","-","-","225.0","Celsius","-","-","-","-","225.0","Celsius","-","-","-","-","","-",""
"CN1C=C[N+](=C1)CC(=O)C2=CC=C(C=C2)C(=O)N.[Br-]","-","-","AUTO_1192","C0971_A0004","A132065","-","-","-","235.0","Celsius","-","-","-","-","235.0","Celsius","-","-","-","-","","-",""
"CC=1N(C=C[N+]1CC2=CC=CC=C2)CCC(C3=CC=CC=C3)(C4=CC=CC=C4)C(=O)N.[Br-]","-","-","AUTO_1193","C0115_A0004","A132065","-","-","-","231.0","Celsius","-","-","-","-","231.0","Celsius","-","-","-","-","","-",""
"CC1=[N+](C=CN1CCC(C2=CC=CC=C2)(C3=CC=CC=C3)C(=O)N)CC4=CC=C(C=C4)C5=CC=CC=C5.[Br-]","-","-","AUTO_1194","C0943_A0004","A132065","-","-","-","249.0","Celsius","-","-","-","-","249.0","Celsius","-","-","-","-","","-",""
"CC(=O)CN1C(C)=[N+](C=2C1=CC=CC2)C.[Br-]","-","-","AUTO_1195","C0373_A0004","A132065","-","-","-","234.0","Celsius","-","-","-","-","234.0","Celsius","-","-","-","-","","-",""
"CCOC(=O)C[N+]=1C2=CC=CC=C2N(C1C)CC.[Br-]","-","-","AUTO_1196","C0510_A0004","A132065","-","-","-","233.0","Celsius","-","-","-","-","233.0","Celsius","-","-","-","-","","-",""
"ClC1=CC=C2C(=C1)[N+](CC(=O)C3=CC=CC=C3)=CN2C.[Br-]","-","-","AUTO_1197","C0975_A0004","A132065","-","-","-","234.0","Celsius","-","-","-","-","234.0","Celsius","-","-","-","-","","-",""
"CCCCCCCCCCCCCCCCN1C2=CC=CC=C2[N+](=C1C)CCCCCCCCCCCCCCCC.[Br-]","-","-","AUTO_1198","C0886_A0004","A132065","-","-","-","239.0","Celsius","-","-","-","-","239.0","Celsius","-","-","-","-","","-",""
"O=C(C1=CC=CC=C1)C[N+]2=CN(C=C2C)C(C3=CC=CC=C3)(C4=CC=CC=C4)C5=CC=CC=C5.[Br-]","-","-","AUTO_1199","C0472_A0004","A132065","-","-","-","206.0","Celsius","-","-","-","-","206.0","Celsius","-","-","-","-","","-",""
"CC[C@@H]1C(=O)OC[C@@H]1CC2=C[N+](=CN2C)CC(=O)C3=CC=C(C=C3)Br.[Br-]","-","-","AUTO_1200","C0529_A0004","A132065","-","-","-","220.0","Celsius","-","-","-","-","220.0","Celsius","-","-","-","-","","-",""
"CCN1C=[N+](C=2C1=CC=CC2)CC.[Br-]","-","-","AUTO_1201","C0484_A0004","A132065","-","-","-","206.0","Celsius","-","-","-","-","206.0","Celsius","-","-","-","-","","-",""
"O=C(C1=CC=CC=C1)C[N+]2=CN(C=3C2=CC=CC3)C.[Br-]","-","-","AUTO_1202","C1144_A0004","A132065","-","-","-","211.0","Celsius","-","-","-","-","211.0","Celsius","-","-","-","-","","-",""
"COC(=O)CN1C(C)=[N+](C=2C1=CC=CC2)CC(=O)C3=CC=C(C=C3)C.[Br-]","-","-","AUTO_1203","C0451_A0004","A132065","-","-","-","217.0","Celsius","-","-","-","-","217.0","Celsius","-","-","-","-","","-",""
"COC(=O)CN1C(C)=[N+](C=2C1=CC=CC2)CC(=O)C3=CC=C(C=C3)Br.[Br-]","-","-","AUTO_1204","C0955_A0004","A132065","-","-","-","211.0","Celsius","-","-","-","-","211.0","Celsius","-","-","-","-","","-",""
"CCCCCCCCN1C2=CC(Cl)=C(C=C2[N+](=C1C)CCCC(=O)O)Cl.[Br-]","-","-","AUTO_1205","C0171_A0004","A132065","-","-","-","208.0","Celsius","-","-","-","-","208.0","Celsius","-","-","-","-","","-",""
"BrC1=CC=C(C=C1)C(=O)C[N+]=2C=CN(C2C)CCC3=CC=CC=C3.[Br-]","-","-","AUTO_1206","C0165_A0004","A132065","-","-","-","193.0","Celsius","-","-","-","-","193.0","Celsius","-","-","-","-","","-",""
"CC[C@@H]1C(=O)OC[C@@H]1CC2=C[N+](=CN2C)CCC3=CC=CC=C3.[Br-]","-","-","AUTO_1207","C0581_A0004","A132065","-","-","-","173.0","Celsius","-","-","-","-","173.0","Celsius","-","-","-","-","","-",""
"CC[C@@H]1C(=O)OC[C@@H]1CC2=C[N+](=CN2C)CC(=O)C3=CC=C(C=C3)C4=CC=CC=C4.[Br-]","-","-","AUTO_1208","C0048_A0004","A132065","-","-","-","179.0","Celsius","-","-","-","-","179.0","Celsius","-","-","-","-","","-",""
"CCC1=CC=C(C=C1)C(=O)C[N+]=2C=CN(C2)C.[Br-]","-","-","AUTO_1209","C0754_A0004","A132065","-","-","-","178.0","Celsius","-","-","-","-","178.0","Celsius","-","-","-","-","","-",""
"C[N+]=1C=CN(C1)C(C2=CC=CC=C2)C3=CC=CC=C3.[Br-]","-","-","AUTO_1210","C0601_A0004","A132065","-","-","-","174.0","Celsius","-","-","-","-","174.0","Celsius","-","-","-","-","","-",""
"O=C(C1=CC=CC=C1)CN2C=[N+](C=3C2=CC=CC3)CC(=O)C4=CC=CC=C4.[Br-]","-","-","AUTO_1211","C0180_A0004","A132065","-","-","-","178.0","Celsius","-","-","-","-","178.0","Celsius","-","-","-","-","","-",""
"CCOC(=O)C[N+]1=CN(C=2C1=CC=CC2)CC3=CC=CC=C3.[Br-]","-","-","AUTO_1212","C0090_A0004","A132065","-","-","-","167.0","Celsius","-","-","-","-","167.0","Celsius","-","-","-","-","","-",""
"CC[C@@H]1C(=O)OC[C@@H]1CC2=C[N+](=CN2C)CC3=CC=C(C=C3)Br.[Br-]","-","-","AUTO_1213","C0883_A0004","A132065","-","-","-","159.0","Celsius","-","-","-","-","159.0","Celsius","-","-","-","-","","-",""
"CC1=CC=C(C=C1)C(=O)C[N+]=2C=CN(C2)C.[Br-]","-","-","AUTO_1214","C0359_A0004","A132065","-","-","-","150.0","Celsius","-","-","-","-","150.0","Celsius","-","-","-","-","","-",""
"CCCN1C=C[N+](=C1)CC(=O)C2=CC=CC=C2.[Br-]","-","-","AUTO_1215","C1050_A0004","A132065","-","-","-","149.0","Celsius","-","-","-","-","149.0","Celsius","-","-","-","-","","-",""
"CC[N+]=1C=CN(C1)C(C2=CC=CC=C2)C3=CC=CC=C3.[Br-]","-","-","AUTO_1216","C0396_A0004","A132065","-","-","-","137.0","Celsius","-","-","-","-","137.0","Celsius","-","-","-","-","","-",""
"CCOC(=O)C[N+]1=CN(C=2C1=CC=CC2)C.[Br-]","-","-","AUTO_1217","C0952_A0004","A132065","-","-","-","157.0","Celsius","-","-","-","-","157.0","Celsius","-","-","-","-","","-",""
"BrC1=CC=C(C=C1)C[N+]2=CN(C=3C2=CC=CC3)CCC[Si](C)(C)C.[Br-]","-","-","AUTO_1218","C0341_A0004","A132065","-","-","-","155.0","Celsius","-","-","-","-","155.0","Celsius","-","-","-","-","","-",""
"CCCCCCCCCCCCCC[N+]=1C=CN(C1C)CC2=CC=CC=C2.[Br-]","-","-","AUTO_1219","C0993_A0004","A132065","-","-","-","103.0","Celsius","-","-","-","-","103.0","Celsius","-","-","-","-","","-",""