"SMILES","CASRN","EXTERNALID","N","NAME","ARTICLEID","PUBMEDID","PAGE","TABLE","Melting Point","UNIT {Melting Point}","Decomposition","UNIT {Decomposition}","Glass-transition temperature (Tg)","UNIT {Glass-transition temperature (Tg)}","Melting Point {measured, converted}","UNIT {Melting Point}","Decomposition {measured, converted}","UNIT {Decomposition}","Glass-transition temperature (Tg) {measured, converted}","UNIT {Glass-transition temperature (Tg)}","weight loss","UNIT {weight loss}","Solvent"
"C(#N)C[N+]1(CCCC1)CC#N.C(F)(F)(F)S(=O)(=O)[N-]S(=O)(=O)C(F)(F)F","-","-","AUTO_1778","C1251_A0048","A132065","-","-","-","58.0","Celsius","-","-","-","-","58.0","Celsius","-","-","-","-","","-",""
"C(#N)C[N+]1(CCCCC1)CC#N.C(F)(F)(F)S(=O)(=O)[N-]S(=O)(=O)C(F)(F)F","-","-","AUTO_1779","C1252_A0048","A132065","-","-","-","62.0","Celsius","-","-","-","-","62.0","Celsius","-","-","-","-","","-",""
"CN1C=C[N+](=C1)C.S(C)(=O)(=O)[O-]","-","-","AUTO_1780","C0958_A0054","A132065","-","-","-","91.0","Celsius","-","-","-","-","91.0","Celsius","-","-","-","-","","-",""
"CC[N+]=1C=CN(C1)C.S(C)(=O)(=O)[O-]","-","-","AUTO_1781","C0460_A0054","A132065","-","-","-","31.0","Celsius","-","-","-","-","31.0","Celsius","-","-","-","-","","-",""
"CCC[N+]=1C=CN(C1)C.S(C)(=O)(=O)[O-]","-","-","AUTO_1782","C0811_A0054","A132065","-","-","-","40.0","Celsius","-","-","-","-","40.0","Celsius","-","-","-","-","","-",""
"CCCC[N+]=1C=CN(C1)C.S(C)(=O)(=O)[O-]","-","-","AUTO_1783","C0505_A0054","A132065","-","-","-","74.0","Celsius","-","-","-","-","74.0","Celsius","-","-","-","-","","-",""
"CCCCC[N+]=1C=CN(C1)C.S(C)(=O)(=O)[O-]","-","-","AUTO_1784","C0782_A0054","A132065","-","-","-","77.0","Celsius","-","-","-","-","77.0","Celsius","-","-","-","-","","-",""
"CCCCCCCC[N+]=1C=CN(C1)C.S(C)(=O)(=O)[O-]","-","-","AUTO_1785","C0290_A0054","A132065","-","-","-","38.0","Celsius","-","-","-","-","38.0","Celsius","-","-","-","-","","-",""
"CCCCCCCCCC[N+]=1C=CN(C1)C.S(C)(=O)(=O)[O-]","-","-","AUTO_1786","C0515_A0054","A132065","-","-","-","57.0","Celsius","-","-","-","-","57.0","Celsius","-","-","-","-","","-",""
"CCC[N+]=1C=CN(C1)C.C(C)S(=O)(=O)[O-]","-","-","AUTO_1787","C0811_A0103","A132065","-","-","-","19.0","Celsius","-","-","-","-","19.0","Celsius","-","-","-","-","","-",""
"CCCC[N+]=1C=CN(C1)C.C(C)S(=O)(=O)[O-]","-","-","AUTO_1788","C0505_A0103","A132065","-","-","-","57.0","Celsius","-","-","-","-","57.0","Celsius","-","-","-","-","","-",""
"CCCCC[N+]=1C=CN(C1)C.C(C)S(=O)(=O)[O-]","-","-","AUTO_1789","C0782_A0103","A132065","-","-","-","54.0","Celsius","-","-","-","-","54.0","Celsius","-","-","-","-","","-",""
"CCCCCC[N+]=1C=CN(C1)C.C(C)S(=O)(=O)[O-]","-","-","AUTO_1790","C0190_A0103","A132065","-","-","-","66.0","Celsius","-","-","-","-","66.0","Celsius","-","-","-","-","","-",""
"CCC[N+]=1C=CN(C1)C.C(CC)S(=O)(=O)[O-]","-","-","AUTO_1791","C0811_A0104","A132065","-","-","-","32.0","Celsius","-","-","-","-","32.0","Celsius","-","-","-","-","","-",""
"CCCC[N+]=1C=CN(C1)C.C(CC)S(=O)(=O)[O-]","-","-","AUTO_1792","C0505_A0104","A132065","-","-","-","53.0","Celsius","-","-","-","-","53.0","Celsius","-","-","-","-","","-",""
"CCC[N+]=1C=CN(C1)C.C(CCC)S(=O)(=O)[O-]","-","-","AUTO_1793","C0811_A0105","A132065","-","-","-","47.0","Celsius","-","-","-","-","47.0","Celsius","-","-","-","-","","-",""
"CC[N+]=1C=CN(C1)C.C(CCCCC)S(=O)(=O)[O-]","-","-","AUTO_1794","C0460_A0106","A132065","-","-","-","19.0","Celsius","-","-","-","-","19.0","Celsius","-","-","-","-","","-",""
"C1=CN2C=CC=CC2=[NH+]1.C(C(=O)[O-])(=O)O","-","-","AUTO_1795","C1254_A0107","A132065","-","-","-","130.0","Celsius","-","-","-","-","130.0","Celsius","-","-","-","-","","-",""
"C1=CN2C=CC=CC2=[NH+]1.OC(=O)C1=CC=CC=C1C([O-])=O","-","-","AUTO_1796","C1254_A0088","A132065","-","-","-","88.0","Celsius","-","-","-","-","88.0","Celsius","-","-","-","-","","-",""
"C1=CN2C=CC=CC2=[NH+]1.S(=O)(=O)(O)[O-]","-","-","AUTO_1797","C1254_A0017","A132065","-","-","-","62.0","Celsius","-","-","-","-","62.0","Celsius","-","-","-","-","","-",""
"ClCC[NH+]1CCOCC1.C(F)(F)(F)S(=O)(=O)[N-]S(=O)(=O)C(F)(F)F","-","-","AUTO_1798","C1255_A0048","A132065","-","-","-","23.0","Celsius","-","-","-","-","23.0","Celsius","-","-","-","-","","-",""
"ClCC[NH+]1CCCCC1.C(F)(F)(F)S(=O)(=O)[N-]S(=O)(=O)C(F)(F)F","-","-","AUTO_1799","C1256_A0048","A132065","-","-","-","34.0","Celsius","-","-","-","-","34.0","Celsius","-","-","-","-","","-",""
"ClCC[NH+]1CCCC1.C(F)(F)(F)S(=O)(=O)[N-]S(=O)(=O)C(F)(F)F","-","-","AUTO_1800","C1257_A0048","A132065","-","-","-","29.0","Celsius","-","-","-","-","29.0","Celsius","-","-","-","-","","-",""
"ClCC[NH+](CC)CC.C(F)(F)(F)S(=O)(=O)[N-]S(=O)(=O)C(F)(F)F","-","-","AUTO_1801","C1258_A0048","A132065","-","-","-","-8.5","Celsius","-","-","-","-","-8.5","Celsius","-","-","-","-","","-",""
"ClCC[NH+](C)C.C(F)(F)(F)S(=O)(=O)[N-]S(=O)(=O)C(F)(F)F","-","-","AUTO_1802","C1259_A0048","A132065","-","-","-","24.0","Celsius","-","-","-","-","24.0","Celsius","-","-","-","-","","-",""
"ClCCC[NH+](C)C.C(F)(F)(F)S(=O)(=O)[N-]S(=O)(=O)C(F)(F)F","-","-","AUTO_1803","C1260_A0048","A132065","-","-","-","32.0","Celsius","-","-","-","-","32.0","Celsius","-","-","-","-","","-",""
"CCC[N+]1(C)CCCC1.FC(S(=O)(=O)[O-])(F)F","-","-","AUTO_1804","C0152_A0084","A132065","-","-","-","77.0","Celsius","-","-","-","-","77.0","Celsius","-","-","-","-","","-",""
"C(CCC)[N+]1=CC=C(C=C1)C#N.C(#N)[C-](C#N)C#N","-","-","AUTO_1805","C1261_A0055","A132065","-","-","-","89.0","Celsius","-","-","-","-","89.0","Celsius","-","-","-","-","","-",""
"N(=[N+]=[N-])C(C[N+]1=CN(C=C1)C)CBr.[Br-]","-","-","AUTO_1806","C1262_A0004","A132065","-","-","-","10.0","Celsius","-","-","-","-","10.0","Celsius","-","-","-","-","","-",""
"N(=[N+]=[N-])CC(C[N+]1=CN(C=C1)C)Br.[Br-]","-","-","AUTO_1807","C1263_A0004","A132065","-","-","-","17.0","Celsius","-","-","-","-","17.0","Celsius","-","-","-","-","","-",""
"N(=[N+]=[N-])C(C[N+]1=CN(C=C1)C)CBr.C(#N)[N-]C#N","-","-","AUTO_1808","C1262_A0056","A132065","-","-","-","-2.0","Celsius","-","-","-","-","-2.0","Celsius","-","-","-","-","","-",""
"N(=[N+]=[N-])CC(C[N+]1=CN(C=C1)C)Br.C(#N)[N-]C#N","-","-","AUTO_1809","C1263_A0056","A132065","-","-","-","6.0","Celsius","-","-","-","-","6.0","Celsius","-","-","-","-","","-",""
"C(CCC)[N+]1=CSC2=C1C=CC=C2.F[P-](F)(F)(F)(F)F","-","-","AUTO_1810","C1266_A0011","A132065","-","-","-","122.0","Celsius","-","-","-","-","122.0","Celsius","-","-","-","-","","-",""
"C(CCCC)[N+]1=CSC2=C1C=CC=C2.F[P-](F)(F)(F)(F)F","-","-","AUTO_1811","C1267_A0011","A132065","-","-","-","139.0","Celsius","-","-","-","-","139.0","Celsius","-","-","-","-","","-",""
"C(CCCCC)[N+]1=CSC2=C1C=CC=C2.F[P-](F)(F)(F)(F)F","-","-","AUTO_1812","C1268_A0011","A132065","-","-","-","86.0","Celsius","-","-","-","-","86.0","Celsius","-","-","-","-","","-",""
"C(CCCCCC)[N+]1=CSC2=C1C=CC=C2.F[P-](F)(F)(F)(F)F","-","-","AUTO_1813","C1269_A0011","A132065","-","-","-","86.0","Celsius","-","-","-","-","86.0","Celsius","-","-","-","-","","-",""
"C(CCCCCCC)[N+]1=CSC2=C1C=CC=C2.F[P-](F)(F)(F)(F)F","-","-","AUTO_1814","C1270_A0011","A132065","-","-","-","61.0","Celsius","-","-","-","-","61.0","Celsius","-","-","-","-","","-",""
"OCCC[N+]1(CCOCC1)C.C(F)(F)(F)S(=O)(=O)[N-]S(=O)(=O)C(F)(F)F","-","-","AUTO_1815","C1271_A0048","A132065","-","-","-","14.0","Celsius","-","-","-","-","14.0","Celsius","-","-","-","-","","-",""
"C1(=CC=CC=C1)[P+](C2=CC=CC=C2)(C3=CC=CC=C3)C4=CC=CC=C4.[Cl-]","-","-","AUTO_1816","C1272_A0033","A132065","-","-","-","277.0","Celsius","-","-","-","-","277.0","Celsius","-","-","-","-","","-",""
"[NH4+].O=N(=O)[N-]N(=O)=O","-","-","AUTO_1817","C1273_A0063","A132065","-","-","-","93.0","Celsius","-","-","-","-","93.0","Celsius","-","-","-","-","","-",""
"CC(CCC[N+]1=CN(C=C1)C)C.C(F)(F)(F)S(=O)(=O)[N-]S(=O)(=O)C(F)(F)F","-","-","AUTO_1818","C1274_A0048","A132065","-","-","-","3.0","Celsius","-","-","-","-","3.0","Celsius","-","-","-","-","","-",""
"CC(CC[N+]=1C=CN(C1)C)C.C(F)(F)(F)S(=O)(=O)[N-]S(=O)(=O)C(F)(F)F","-","-","AUTO_1819","C0584_A0048","A132065","-","-","-","0.0","Celsius","-","-","-","-","0.0","Celsius","-","-","-","-","","-",""
"CC(CCCC[N+]1=CN(C=C1)C)C.C(F)(F)(F)S(=O)(=O)[N-]S(=O)(=O)C(F)(F)F","-","-","AUTO_1820","C1275_A0048","A132065","-","-","-","11.0","Celsius","-","-","-","-","11.0","Celsius","-","-","-","-","","-",""
"C(C)[N+]=1C=NN(C1)C.C(F)(F)(F)S(=O)(=O)[N-]S(=O)(=O)C(F)(F)F","-","-","AUTO_1821","C1276_A0048","A132065","-","-","-","50.0","Celsius","-","-","-","-","50.0","Celsius","-","-","-","-","","-",""
"CN1N=C[N+](=C1)CCC.C(F)(F)(F)S(=O)(=O)[N-]S(=O)(=O)C(F)(F)F","-","-","AUTO_1822","C1277_A0048","A132065","-","-","-","32.0","Celsius","-","-","-","-","32.0","Celsius","-","-","-","-","","-",""
"CN1N=C[N+](=C1)CCCCCCCC.C(F)(F)(F)S(=O)(=O)[N-]S(=O)(=O)C(F)(F)F","-","-","AUTO_1823","C1278_A0048","A132065","-","-","-","17.0","Celsius","-","-","-","-","17.0","Celsius","-","-","-","-","","-",""
"C(CCC)[N+]=1C=NN(C1)C.F[P-](F)(F)(F)(F)F","-","-","AUTO_1824","C1279_A0011","A132065","-","-","-","55.0","Celsius","-","-","-","-","55.0","Celsius","-","-","-","-","","-",""
"CC[S+](C)CC.C(F)(F)(F)S(=O)(=O)[N-]S(=O)(=O)C(F)(F)F","-","-","AUTO_1825","C1280_A0048","A132065","-","-","-","-12.0","Celsius","-","-","-","-","-12.0","Celsius","-","-","-","-","","-",""
"CC[S+](CC)CC.C(F)(F)(F)S(=O)(=O)[N-]S(=O)(=O)C(F)(F)F","-","-","AUTO_1826","C0598_A0048","A132065","-","-","-","-18.0","Celsius","-","-","-","-","-18.0","Celsius","-","-","-","-","","-",""
"CCC[S+](CC)CC.C(F)(F)(F)S(=O)(=O)[N-]S(=O)(=O)C(F)(F)F","-","-","AUTO_1827","C1281_A0048","A132065","-","-","-","-6.0","Celsius","-","-","-","-","-6.0","Celsius","-","-","-","-","","-",""
"CCCC[P+](CC)(CC)CC.FC(C1=N[N-]C=C1)(F)F","-","-","AUTO_1828","C0519_A0109","A132065","-","-","-","11.0","Celsius","-","-","-","-","11.0","Celsius","-","-","-","-","","-",""
"CCCC[P+](CC)(CC)CC.CC1=N[N-]C(=C1)C(F)(F)F","-","-","AUTO_1829","C0519_A0110","A132065","-","-","-","21.0","Celsius","-","-","-","-","21.0","Celsius","-","-","-","-","","-",""
"C(CCCCCCC)[P+](CC)(CC)CC.[N-]1N=CC2=CC=CC=C12","-","-","AUTO_1830","C1210_A0111","A132065","-","-","-","-9.0","Celsius","-","-","-","-","-9.0","Celsius","-","-","-","-","","-",""
"C[N+](CCCCC)(CC)C.C(F)(F)(F)S(=O)(=O)[N-]S(=O)(=O)C(F)(F)F","-","-","AUTO_1831","C0471_A0048","A132065","-","-","-","-8.0","Celsius","-","-","-","-","-8.0","Celsius","-","-","-","-","","-",""
"[N+](CCCC(F)(F)F)(CC)(C)CC.C(F)(F)(F)S(=O)(=O)[N-]S(=O)(=O)C(F)(F)F","-","-","AUTO_1832","C0649_A0048","A132065","-","-","-","36.0","Celsius","-","-","-","-","36.0","Celsius","-","-","-","-","","-",""
"C(CCC)[P+](CCCC)(CCCC)CCCC.N1=C[N-]C2=C1C=CC=C2","-","-","AUTO_1833","C1199_A0179","A132065","-","-","-","71.0","Celsius","-","-","-","-","71.0","Celsius","-","-","-","-","","-",""
"C(CCC)[P+](CCCC)(CCCC)CCCC.BrC=1C=CC2=C(N=C[N-]2)C1","-","-","AUTO_1834","C1199_A0180","A132065","-","-","-","69.0","Celsius","-","-","-","-","69.0","Celsius","-","-","-","-","","-",""
"CC[P+](CC)(CC)CC.N1=C[N-]C2=C1C=CC=C2","-","-","AUTO_1835","C0872_A0179","A132065","-","-","-","166.0","Celsius","-","-","-","-","166.0","Celsius","-","-","-","-","","-",""
"C[N+]1=CC=CC2=CC=C3C=CC=NC3=C12.C(F)(F)(F)S(=O)(=O)[N-]S(=O)(=O)C(F)(F)F","-","-","AUTO_1837","C1977_A0048","A132065","-","-","-","69.0","Celsius","-","-","-","-","69.0","Celsius","-","-","-","-","","-",""
"[NH2+]1CCCC1.F[B-](F)(F)F","-","-","AUTO_1838","C1167_A0020","A132065","-","-","-","74.0","Celsius","-","-","-","-","74.0","Celsius","-","-","-","-","","-",""
"[NH2+]1CCCC1.FC(S(=O)(=O)[O-])(F)F","-","-","AUTO_1839","C1167_A0084","A132065","-","-","-","109.0","Celsius","-","-","-","-","109.0","Celsius","-","-","-","-","","-",""
"[NH2+]1CCCC1.FC(C(C(C(F)(F)F)(F)F)(F)F)(S(=O)(=O)[O-])F","-","-","AUTO_1840","C1167_A0079","A132065","-","-","-","148.0","Celsius","-","-","-","-","148.0","Celsius","-","-","-","-","","-",""
"[NH2+]1CCCC1.FC(C(C(C(C(C(S(=O)(=O)[O-])(F)F)(F)F)(F)F)(F)F)(F)F)(F)F","-","-","AUTO_1841","C1167_A0207","A132065","-","-","-","110.0","Celsius","-","-","-","-","110.0","Celsius","-","-","-","-","","-",""
"[NH2+]1CCCC1.FC(C(C(C(C(C(C(C(F)(F)F)(F)F)(F)F)(F)F)(F)F)(F)F)(F)F)(S(=O)(=O)[O-])F","-","-","AUTO_1842","C1167_A0096","A132065","-","-","-","120.0","Celsius","-","-","-","-","120.0","Celsius","-","-","-","-","","-",""
"CC1=[N+](CCC(F)(F)F)C=CN1CN2C=CC=N2.C(F)(F)(F)S(=O)(=O)[N-]S(=O)(=O)C(F)(F)F","-","-","AUTO_1843","C1980_A0048","A132065","-","-","-","85.0","Celsius","-","-","-","-","85.0","Celsius","-","-","-","-","","-",""
"CC1=[N+](CCCC(F)(F)F)C=CN1CN2C=CC=N2.C(F)(F)(F)S(=O)(=O)[N-]S(=O)(=O)C(F)(F)F","-","-","AUTO_1844","C1982_A0048","A132065","-","-","-","75.0","Celsius","-","-","-","-","75.0","Celsius","-","-","-","-","","-",""
"CC1=[N+](CCC(F)(F)C(F)(F)C(F)(F)C(F)(F)F)C=CN1CN2C=CC=N2.C(F)(F)(F)S(=O)(=O)[N-]S(=O)(=O)C(F)(F)F","-","-","AUTO_1845","C1984_A0048","A132065","-","-","-","112.0","Celsius","-","-","-","-","112.0","Celsius","-","-","-","-","","-",""
"CC1=[N+](CCCC(F)(F)F)C=CN1CN2C=CC=N2.F[P-](F)(F)(F)(F)F","-","-","AUTO_1846","C1982_A0011","A132065","-","-","-","114.0","Celsius","-","-","-","-","114.0","Celsius","-","-","-","-","","-",""
"CC1=NN(CN2C=C[N+](C)=C2C)C(C)=C1.C(F)(F)(F)S(=O)(=O)[N-]S(=O)(=O)C(F)(F)F","-","-","AUTO_1847","C1985_A0048","A132065","-","-","-","80.0","Celsius","-","-","-","-","80.0","Celsius","-","-","-","-","","-",""
"CC1=NN(CN2C=C[N+](C)=C2C)C(C)=C1.F[P-](F)(F)(F)(F)F","-","-","AUTO_1848","C1985_A0011","A132065","-","-","-","163.0","Celsius","-","-","-","-","163.0","Celsius","-","-","-","-","","-",""
"CCC[N+]1(C)CCCC1.C(F)(F)(F)S(=O)(=O)[N-]S(=O)(=O)C(F)(F)F","-","-","AUTO_1849","C0152_A0048","A132065","-","-","-","7.0","Celsius","-","-","-","-","7.0","Celsius","-","-","-","-","","-",""
"CCC[N+]1(C)CCCCC1.C(F)(F)(F)S(=O)(=O)[N-]S(=O)(=O)C(F)(F)F","-","-","AUTO_1850","C0155_A0048","A132065","-","-","-","9.0","Celsius","-","-","-","-","9.0","Celsius","-","-","-","-","","-",""
"CN1C(=[N+](C=C1)CC=2N=NN(C2)CCCC)C.F[P-](F)(F)(F)(F)F","-","-","AUTO_1851","C1988_A0011","A132065","-","-","-","74.0","Celsius","-","-","-","-","74.0","Celsius","-","-","-","-","","-",""
"CN1C(=[N+](C=C1)CC=2N=NN(C2)CC3=CC=CC=C3)C.F[P-](F)(F)(F)(F)F","-","-","AUTO_1852","C1990_A0011","A132065","-","-","-","114.0","Celsius","-","-","-","-","114.0","Celsius","-","-","-","-","","-",""
"CN1C=[N+](C=C1)CC=2N=NN(C2)CC3=CC=CC=C3.F[P-](F)(F)(F)(F)F","-","-","AUTO_1853","C1991_A0011","A132065","-","-","-","85.0","Celsius","-","-","-","-","85.0","Celsius","-","-","-","-","","-",""
"C(CCC)N1C=[N+](C=C1)CC=2N=NN(C2)CC3=CC=CC=C3.F[P-](F)(F)(F)(F)F","-","-","AUTO_1854","C1992_A0011","A132065","-","-","-","87.0","Celsius","-","-","-","-","87.0","Celsius","-","-","-","-","","-",""
"C(CCC)N1C=[N+](C=C1)CC=2N=NN(C2)C3=CC=CC=C3.F[P-](F)(F)(F)(F)F","-","-","AUTO_1855","C1993_A0011","A132065","-","-","-","113.0","Celsius","-","-","-","-","113.0","Celsius","-","-","-","-","","-",""
"C1(=C(C(=CC(=C1)C)C)N2C=[N+](C=C2)CC=3N=NN(C3)CC4=CC=CC=C4)C.F[P-](F)(F)(F)(F)F","-","-","AUTO_1856","C1996_A0011","A132065","-","-","-","48.0","Celsius","-","-","-","-","48.0","Celsius","-","-","-","-","","-",""
"C[N+]1=CN(CCC(F)(F)C(F)(F)C(F)(F)C(F)(F)C(F)(F)C(F)(F)F)C=C1.FC(F)(F)C(F)(F)S(=O)(=O)[N-]S(=O)(=O)C(F)(F)C(F)(F)F","-","-","AUTO_1857","C1188_A0067","A132065","-","-","-","38.0","Celsius","-","-","-","-","38.0","Celsius","-","-","-","-","","-",""
"CC[NH+](CC)CC.OP([O-])=O","-","-","AUTO_1858","C0473_A0320","A132065","-","-","-","43.0","Celsius","-","-","-","-","43.0","Celsius","-","-","-","-","","-",""
"CC[NH+](CC)CC.S(=O)(=O)([O-])C1=CC=C(C)C=C1","-","-","AUTO_1859","C0473_A0030","A132065","-","-","-","68.0","Celsius","-","-","-","-","68.0","Celsius","-","-","-","-","","-",""
"CC[NH+](CC)CC.FC(C(=O)[O-])(F)F","-","-","AUTO_1860","C0473_A0064","A132065","-","-","-","9.0","Celsius","-","-","-","-","9.0","Celsius","-","-","-","-","","-",""
"C1(=CC=CC=C1)[P+](C2=CC=CC=C2)(C3=CC=CC=C3)C4=CC=CC=C4.C(F)(F)(F)S(=O)(=O)[N-]S(=O)(=O)C(F)(F)F","-","-","AUTO_1861","C1272_A0048","A132065","-","-","-","134.0","Celsius","-","-","-","-","134.0","Celsius","-","-","-","-","","-",""
"C[N+](C)(C)CCN=[N+]=[N-].[O-][N+](=O)[N-]C#N","-","-","AUTO_1862","C2000_A0261","A132065","-","-","-","28.0","Celsius","-","-","-","-","28.0","Celsius","-","-","-","-","","-",""
"C[N+](C)(C)CCN=[N+]=[N-].C(#N)[N-]C#N","-","-","AUTO_1863","C2000_A0056","A132065","-","-","-","9.0","Celsius","-","-","-","-","9.0","Celsius","-","-","-","-","","-",""
"C[N+](C)(C)CCN=[N+]=[N-].[N-]=[N+]=[N-]","-","-","AUTO_1864","C2000_A0073","A132065","-","-","-","92.0","Celsius","-","-","-","-","92.0","Celsius","-","-","-","-","","-",""
"N(=[N+]=[N-])CC[NH2+]CCN=[N+]=[N-].[O-][N+](=O)[N-]C#N","-","-","AUTO_1865","C2003_A0261","A132065","-","-","-","58.0","Celsius","-","-","-","-","58.0","Celsius","-","-","-","-","","-",""
"CC[NH+](CC)CC.[N-]=[N+]=[N-]","-","-","AUTO_1866","C0473_A0073","A132065","-","-","-","80.0","Celsius","-","-","-","-","80.0","Celsius","-","-","-","-","","-",""
"C[NH+](C)C(C)C.[N-]=[N+]=[N-]","-","-","AUTO_1867","C2004_A0073","A132065","-","-","-","75.0","Celsius","-","-","-","-","75.0","Celsius","-","-","-","-","","-",""
"C#CCN1C=C[N+](=C1)C.C(#N)[N-]C#N","-","-","AUTO_1868","C0733_A0056","A132065","-","-","-","17.0","Celsius","-","-","-","-","17.0","Celsius","-","-","-","-","","-",""
"C(C#CC)[N+]1=CN(C=C1)C.C(#N)[N-]C#N","-","-","AUTO_1869","C2006_A0056","A132065","-","-","-","49.0","Celsius","-","-","-","-","49.0","Celsius","-","-","-","-","","-",""
"C(C#CCC)[N+]1=CN(C=C1)C.C(#N)[N-]C#N","-","-","AUTO_1870","C2007_A0056","A132065","-","-","-","59.0","Celsius","-","-","-","-","59.0","Celsius","-","-","-","-","","-",""
"CC[N+]=1C=CN(C1)C.FC(C=1C=C(C=C(C1)C(F)(F)F)[B-](C2=CC(=CC(=C2)C(F)(F)F)C(F)(F)F)(C3=CC(=CC(=C3)C(F)(F)F)C(F)(F)F)C4=CC(=CC(=C4)C(F)(F)F)C(F)(F)F)(F)F","-","-","AUTO_1871","C0460_A0006","A132065","-","-","-","140.0","Celsius","-","-","-","-","140.0","Celsius","-","-","-","-","","-",""
"CC[N+]=1C=CN(C1)C.FC(F)(F)C(O[Al-](OC(C(F)(F)F)(C(F)(F)F)C(F)(F)F)(OC(C(F)(F)F)(C(F)(F)F)C(F)(F)F)OC(C(F)(F)F)(C(F)(F)F)C(F)(F)F)(C(F)(F)F)C(F)(F)F","-","-","AUTO_1872","C0460_A0327","A132065","-","-","-","175.0","Celsius","-","-","-","-","175.0","Celsius","-","-","-","-","","-",""
"CCCCCC[N+]=1C=CN(C1)C.FC(F)(F)C(O[Al-](OC(C(F)(F)F)(C(F)(F)F)C(F)(F)F)(OC(C(F)(F)F)(C(F)(F)F)C(F)(F)F)OC(C(F)(F)F)(C(F)(F)F)C(F)(F)F)(C(F)(F)F)C(F)(F)F","-","-","AUTO_1873","C0190_A0327","A132065","-","-","-","68.0","Celsius","-","-","-","-","68.0","Celsius","-","-","-","-","","-",""
"CC[N+]1=CN(C)C2=CC=CC=C12.FC(C=1C=C(C=C(C1)C(F)(F)F)[B-](C2=CC(=CC(=C2)C(F)(F)F)C(F)(F)F)(C3=CC(=CC(=C3)C(F)(F)F)C(F)(F)F)C4=CC(=CC(=C4)C(F)(F)F)C(F)(F)F)(F)F","-","-","AUTO_1874","C2020_A0006","A132065","-","-","-","109.0","Celsius","-","-","-","-","109.0","Celsius","-","-","-","-","","-",""
"CC[N+]1=CN(C)C2=CC=CC=C12.FC(F)(F)C(O[Al-](OC(C(F)(F)F)(C(F)(F)F)C(F)(F)F)(OC(C(F)(F)F)(C(F)(F)F)C(F)(F)F)OC(C(F)(F)F)(C(F)(F)F)C(F)(F)F)(C(F)(F)F)C(F)(F)F","-","-","AUTO_1875","C2020_A0327","A132065","-","-","-","215.0","Celsius","-","-","-","-","215.0","Celsius","-","-","-","-","","-",""
"CC[N+]1=C(C)N(C)CC1.FC(C=1C=C(C=C(C1)C(F)(F)F)[B-](C2=CC(=CC(=C2)C(F)(F)F)C(F)(F)F)(C3=CC(=CC(=C3)C(F)(F)F)C(F)(F)F)C4=CC(=CC(=C4)C(F)(F)F)C(F)(F)F)(F)F","-","-","AUTO_1876","C2021_A0006","A132065","-","-","-","136.0","Celsius","-","-","-","-","136.0","Celsius","-","-","-","-","","-",""
"CC[N+]1=C(C)N(C)CC1.FC(F)(F)C(O[Al-](OC(C(F)(F)F)(C(F)(F)F)C(F)(F)F)(OC(C(F)(F)F)(C(F)(F)F)C(F)(F)F)OC(C(F)(F)F)(C(F)(F)F)C(F)(F)F)(C(F)(F)F)C(F)(F)F","-","-","AUTO_1877","C2021_A0327","A132065","-","-","-","216.0","Celsius","-","-","-","-","216.0","Celsius","-","-","-","-","","-",""
"CC[N+]1=C2CCCN2CCC1.C(F)(F)(F)S(=O)(=O)[N-]S(=O)(=O)C(F)(F)F","-","-","AUTO_1878","C2015_A0048","A132065","-","-","-","24.0","Celsius","-","-","-","-","24.0","Celsius","-","-","-","-","","-",""
"CCC[N+]1=C2CCCN2CCC1.C(F)(F)(F)S(=O)(=O)[N-]S(=O)(=O)C(F)(F)F","-","-","AUTO_1879","C2016_A0048","A132065","-","-","-","16.0","Celsius","-","-","-","-","16.0","Celsius","-","-","-","-","","-",""