"SMILES","CASRN","EXTERNALID","N","NAME","ARTICLEID","PUBMEDID","PAGE","TABLE","Melting Point","UNIT {Melting Point}","Decomposition","UNIT {Decomposition}","Glass-transition temperature (Tg)","UNIT {Glass-transition temperature (Tg)}","Melting Point {measured, converted}","UNIT {Melting Point}","Decomposition {measured, converted}","UNIT {Decomposition}","Glass-transition temperature (Tg) {measured, converted}","UNIT {Glass-transition temperature (Tg)}","weight loss","UNIT {weight loss}","Solvent"
"C(CCCCC)SC(=[NH+]CC)NCC.FC(S(=O)(=O)[N-]S(=O)(=O)C(F)(F)F)(F)F","-","-","AUTO_791","C1180_A0048","A133072","-","-","-","-","-","239.0","Celsius","-","-","-","-","239.0","Celsius","-","-","","-",""
"C(CCCCCCC)SC(=[NH2+])N.[Br-]","-","-","AUTO_792","C1181_A0004","A133072","-","-","-","-","-","204.0","Celsius","-","-","-","-","204.0","Celsius","-","-","","-",""
"C(CCCCCCC)SC(=[NH2+])N.FC(S(=O)(=O)[N-]S(=O)(=O)C(F)(F)F)(F)F","-","-","AUTO_793","C1181_A0048","A133072","-","-","-","-","-","258.0","Celsius","-","-","-","-","258.0","Celsius","-","-","","-",""
"C(CCCCCCC)SC(=[NH+]C)NC.[Br-]","-","-","AUTO_794","C1182_A0004","A133072","-","-","-","-","-","159.0","Celsius","-","-","-","-","159.0","Celsius","-","-","","-",""
"C(CCCCCCC)SC(=[NH+]C)NC.FC(S(=O)(=O)[N-]S(=O)(=O)C(F)(F)F)(F)F","-","-","AUTO_795","C1182_A0048","A133072","-","-","-","-","-","231.0","Celsius","-","-","-","-","231.0","Celsius","-","-","","-",""
"CCCCCCCCSC(=[N+](C)C)N(C)C.[Br-]","-","-","AUTO_796","C1499_A0004","A133072","-","-","-","-","-","115.0","Celsius","-","-","-","-","115.0","Celsius","-","-","","-",""
"CCCCCCCCSC(=[N+](C)C)N(C)C.FC(S(=O)(=O)[N-]S(=O)(=O)C(F)(F)F)(F)F","-","-","AUTO_797","C1499_A0048","A133072","-","-","-","-","-","311.0","Celsius","-","-","-","-","311.0","Celsius","-","-","","-",""
"CCCCCCCCS/C(=[NH+]/CC)/NCC.[Br-]","-","-","AUTO_798","C1500_A0004","A133072","-","-","-","-","-","150.0","Celsius","-","-","-","-","150.0","Celsius","-","-","","-",""
"CCCCCCCCS/C(=[NH+]/CC)/NCC.FC(S(=O)(=O)[N-]S(=O)(=O)C(F)(F)F)(F)F","-","-","AUTO_799","C1500_A0048","A133072","-","-","-","-","-","175.0","Celsius","-","-","-","-","175.0","Celsius","-","-","","-",""
"CCCCCCCC[P+](CCCCCCCC)(CCCCCCCC)C.[Cl-]","-","-","AUTO_800","C0741_A0033","A133072","-","-","-","-","-","323.0","Celsius","-","-","-","-","323.0","Celsius","-","-","","-",""
"CCCCCCCC[P+](CCCCCCCC)(CCCCCCCC)CC.[Cl-]","-","-","AUTO_801","C0708_A0033","A133072","-","-","-","-","-","317.0","Celsius","-","-","-","-","317.0","Celsius","-","-","","-",""
"CCCCCCCC[P+](CCCCCCCC)(CCCCCCCC)CCC.[Cl-]","-","-","AUTO_802","C0786_A0033","A133072","-","-","-","-","-","322.0","Celsius","-","-","-","-","322.0","Celsius","-","-","","-",""
"CCCCCCCC[P+](CCCCCCCC)(CCCCCCCC)CCCC.[Cl-]","-","-","AUTO_803","C1501_A0033","A133072","-","-","-","-","-","326.0","Celsius","-","-","-","-","326.0","Celsius","-","-","","-",""
"CCCCCCCC[P+](CCCCCCCC)(CCCCCCCC)CCCCC.[Cl-]","-","-","AUTO_804","C1502_A0033","A133072","-","-","-","-","-","310.0","Celsius","-","-","-","-","310.0","Celsius","-","-","","-",""
"CCCCCCCC[P+](CCCCCCCC)(CCCCCCCC)CCCCCC.[Cl-]","-","-","AUTO_805","C1503_A0033","A133072","-","-","-","-","-","305.0","Celsius","-","-","-","-","305.0","Celsius","-","-","","-",""
"CCCCCCCC[P+](CCCCCCCC)(CCCCCCCC)CCCCCCC.[Cl-]","-","-","AUTO_806","C1504_A0033","A133072","-","-","-","-","-","315.0","Celsius","-","-","-","-","315.0","Celsius","-","-","","-",""
"CCCCCCCC[P+](CCCCCCCC)(CCCCCCCC)CCCCCCCC.[Cl-]","-","-","AUTO_807","C1505_A0033","A133072","-","-","-","-","-","317.0","Celsius","-","-","-","-","317.0","Celsius","-","-","","-",""
"CCCCCCCCC[P+](CCCCCCCC)(CCCCCCCC)CCCCCCCC.[Cl-]","-","-","AUTO_808","C1506_A0033","A133072","-","-","-","-","-","295.0","Celsius","-","-","-","-","295.0","Celsius","-","-","","-",""
"CCCCCCCCCC[P+](CCCCCCCC)(CCCCCCCC)CCCCCCCC.[Cl-]","-","-","AUTO_809","C1507_A0033","A133072","-","-","-","-","-","312.0","Celsius","-","-","-","-","312.0","Celsius","-","-","","-",""
"CCCCCCCCCCCC[P+](CCCCCCCC)(CCCCCCCC)CCCCCCCC.[Cl-]","-","-","AUTO_810","C1035_A0033","A133072","-","-","-","-","-","320.0","Celsius","-","-","-","-","320.0","Celsius","-","-","","-",""
"CCCCCCCCCCCCCC[P+](CCCCCCCC)(CCCCCCCC)CCCCCCCC.[Cl-]","-","-","AUTO_811","C0559_A0033","A133072","-","-","-","-","-","330.0","Celsius","-","-","-","-","330.0","Celsius","-","-","","-",""
"CCC[N+]1(C)CCCC1.FS(=O)(=O)[N-]S(=O)(=O)C(F)(F)F","-","-","AUTO_812","C0152_A0168","A133072","-","-","-","-","-","285.0","Celsius","-","-","-","-","285.0","Celsius","-","-","","-",""
"CCCC[N+]1(C)CCCC1.FS(=O)(=O)[N-]S(=O)(=O)C(F)(F)F","-","-","AUTO_813","C0315_A0168","A133072","-","-","-","-","-","256.0","Celsius","-","-","-","-","256.0","Celsius","-","-","","-",""
"COCC[N+]1(C)CCCC1.FS(=O)(=O)[N-]S(=O)(=O)C(F)(F)F","-","-","AUTO_814","C0141_A0168","A133072","-","-","-","-","-","252.0","Celsius","-","-","-","-","252.0","Celsius","-","-","","-",""
"CCCCC1=C[N+](=NN1C)CC2=CC=CC=C2.S(=O)(=O)([O-])C1=CC=C(C)C=C1","-","-","AUTO_815","C1508_A0030","A133072","-","-","-","-","-","240.0","Celsius","-","-","-","-","240.0","Celsius","-","-","","-",""
"CCCCC1=C[N+](=NN1C)CC2=CC=CC=C2.FC(S(=O)(=O)[O-])(F)F","-","-","AUTO_816","C1508_A0084","A133072","-","-","-","-","-","245.0","Celsius","-","-","-","-","245.0","Celsius","-","-","","-",""
"CCCCC1=C[N+](=NN1C)C2=CC=CC=C2.S(=O)(=O)([O-])C1=CC=C(C)C=C1","-","-","AUTO_817","C1014_A0030","A133072","-","-","-","-","-","247.0","Celsius","-","-","-","-","247.0","Celsius","-","-","","-",""
"CCCCC1=C[N+](=NN1C)C2=CC=CC=C2.FC(S(=O)(=O)[O-])(F)F","-","-","AUTO_818","C1014_A0084","A133072","-","-","-","-","-","310.0","Celsius","-","-","-","-","310.0","Celsius","-","-","","-",""
"CCCCC1=C[N+](=NN1C)C.S(=O)(=O)([O-])C1=CC=C(C)C=C1","-","-","AUTO_819","C0905_A0030","A133072","-","-","-","-","-","238.0","Celsius","-","-","-","-","238.0","Celsius","-","-","","-",""
"CCCCC1=C[N+](=NN1C)C.FC(S(=O)(=O)[O-])(F)F","-","-","AUTO_820","C0905_A0084","A133072","-","-","-","-","-","228.0","Celsius","-","-","-","-","228.0","Celsius","-","-","","-",""
"CN1C=C[N+](=N1)C.S(=O)(=O)([O-])C1=CC=C(C)C=C1","-","-","AUTO_821","C0773_A0030","A133072","-","-","-","-","-","240.0","Celsius","-","-","-","-","240.0","Celsius","-","-","","-",""
"CN1C=C[N+](=N1)C.FC(S(=O)(=O)[O-])(F)F","-","-","AUTO_822","C0773_A0084","A133072","-","-","-","-","-","221.0","Celsius","-","-","-","-","221.0","Celsius","-","-","","-",""
"CN1C=C[N+](=C1)C.S(=O)(=O)([O-])C1=CC=C(C)C=C1","-","-","AUTO_823","C0958_A0030","A133072","-","-","-","-","-","324.0","Celsius","-","-","-","-","324.0","Celsius","-","-","","-",""
"CN1C=C[N+](=C1)C.FC(S(=O)(=O)[O-])(F)F","-","-","AUTO_824","C0958_A0084","A133072","-","-","-","-","-","417.0","Celsius","-","-","-","-","417.0","Celsius","-","-","","-",""
"N#CCN1C=C[N+](=C1)C.[Cl-]","-","-","AUTO_825","C0448_A0033","A133072","-","-","-","-","-","206.0","Celsius","-","-","-","-","206.0","Celsius","-","-","","-",""
"N#CCCN1C=C[N+](=C1)C.[Br-]","-","-","AUTO_826","C0197_A0004","A133072","-","-","-","-","-","205.0","Celsius","-","-","-","-","205.0","Celsius","-","-","","-",""
"N#CCCCCN1C=C[N+](=C1)C.[Cl-]","-","-","AUTO_827","C0196_A0033","A133072","-","-","-","-","-","224.0","Celsius","-","-","-","-","224.0","Celsius","-","-","","-",""
"N#CCCCCC[N+]=1C=CN(C1)C.[Br-]","-","-","AUTO_828","C1509_A0004","A133072","-","-","-","-","-","248.0","Celsius","-","-","-","-","248.0","Celsius","-","-","","-",""
"N#CCCCCCC[N+]=1C=CN(C1)C.[Br-]","-","-","AUTO_829","C1510_A0004","A133072","-","-","-","-","-","257.0","Celsius","-","-","-","-","257.0","Celsius","-","-","","-",""
"N#C[C@H]([N+]=1C=CN(C1)C)C.[Br-]","-","-","AUTO_830","C1511_A0004","A133072","-","-","-","-","-","219.0","Celsius","-","-","-","-","219.0","Celsius","-","-","","-",""
"CCCC[N+]=1C=CN(C1)CC#N.[Cl-]","-","-","AUTO_831","C1512_A0033","A133072","-","-","-","-","-","186.0","Celsius","-","-","-","-","186.0","Celsius","-","-","","-",""
"CCCC[N+]=1C=CN(C1)CCC#N.[Br-]","-","-","AUTO_832","C1513_A0004","A133072","-","-","-","-","-","227.0","Celsius","-","-","-","-","227.0","Celsius","-","-","","-",""
"CCCCN1C=C[N+](=C1)CCCC#N.[Cl-]","-","-","AUTO_833","C1514_A0033","A133072","-","-","-","-","-","243.0","Celsius","-","-","-","-","243.0","Celsius","-","-","","-",""
"CCCCN1C=C[N+](=C1)CCCCC#N.[Cl-]","-","-","AUTO_834","C1515_A0033","A133072","-","-","-","-","-","240.0","Celsius","-","-","-","-","240.0","Celsius","-","-","","-",""
"CCCC[N+]=1C=CN(C1)[C@H](C#N)C.[Br-]","-","-","AUTO_835","C1516_A0004","A133072","-","-","-","-","-","211.0","Celsius","-","-","-","-","211.0","Celsius","-","-","","-",""
"N#CCC[N+]=1C=CN(C1)CC#N.[Cl-]","-","-","AUTO_836","C1517_A0033","A133072","-","-","-","-","-","196.0","Celsius","-","-","-","-","196.0","Celsius","-","-","","-",""
"N#CCCC[N+]=1C=CN(C1)CCC#N.[Cl-]","-","-","AUTO_837","C1518_A0033","A133072","-","-","-","-","-","196.0","Celsius","-","-","-","-","196.0","Celsius","-","-","","-",""
"N#CCCCC[N+]=1C=CN(C1)CCC#N.[Cl-]","-","-","AUTO_838","C1519_A0033","A133072","-","-","-","-","-","190.0","Celsius","-","-","-","-","190.0","Celsius","-","-","","-",""
"N#CCCCCC[N+]=1C=CN(C1)CCC#N.[Br-]","-","-","AUTO_839","C1520_A0004","A133072","-","-","-","-","-","202.0","Celsius","-","-","-","-","202.0","Celsius","-","-","","-",""
"N#CCCCCCC[N+]=1C=CN(C1)CCC#N.[Br-]","-","-","AUTO_840","C1521_A0004","A133072","-","-","-","-","-","161.0","Celsius","-","-","-","-","161.0","Celsius","-","-","","-",""
"N#CCN1C=C[N+](=C1)C.[N+](=O)([O-])[O-]","-","-","AUTO_841","C0448_A0090","A133072","-","-","-","-","-","183.0","Celsius","-","-","-","-","183.0","Celsius","-","-","","-",""
"N#CCCN1C=C[N+](=C1)C.[N+](=O)([O-])[O-]","-","-","AUTO_842","C0197_A0090","A133072","-","-","-","-","-","166.0","Celsius","-","-","-","-","166.0","Celsius","-","-","","-",""
"N#CCCCN1C=C[N+](=C1)C.[N+](=O)([O-])[O-]","-","-","AUTO_843","C0083_A0090","A133072","-","-","-","-","-","223.0","Celsius","-","-","-","-","223.0","Celsius","-","-","","-",""
"N#CCCCCN1C=C[N+](=C1)C.[N+](=O)([O-])[O-]","-","-","AUTO_844","C0196_A0090","A133072","-","-","-","-","-","266.0","Celsius","-","-","-","-","266.0","Celsius","-","-","","-",""
"N#C[C@H]([N+]=1C=CN(C1)C)C.[N+](=O)([O-])[O-]","-","-","AUTO_845","C1511_A0090","A133072","-","-","-","-","-","168.0","Celsius","-","-","-","-","168.0","Celsius","-","-","","-",""
"CCCC[N+]=1C=CN(C1)CC#N.[N+](=O)([O-])[O-]","-","-","AUTO_846","C1512_A0090","A133072","-","-","-","-","-","168.0","Celsius","-","-","-","-","168.0","Celsius","-","-","","-",""
"CCCC[N+]=1C=CN(C1)CCC#N.[N+](=O)([O-])[O-]","-","-","AUTO_847","C1513_A0090","A133072","-","-","-","-","-","180.0","Celsius","-","-","-","-","180.0","Celsius","-","-","","-",""
"CCCCN1C=C[N+](=C1)CCCC#N.[N+](=O)([O-])[O-]","-","-","AUTO_848","C1514_A0090","A133072","-","-","-","-","-","258.0","Celsius","-","-","-","-","258.0","Celsius","-","-","","-",""
"CCCCN1C=C[N+](=C1)CCCCC#N.[N+](=O)([O-])[O-]","-","-","AUTO_849","C1515_A0090","A133072","-","-","-","-","-","263.0","Celsius","-","-","-","-","263.0","Celsius","-","-","","-",""
"CCCC[N+]=1C=CN(C1)[C@H](C#N)C.[N+](=O)([O-])[O-]","-","-","AUTO_850","C1516_A0090","A133072","-","-","-","-","-","157.0","Celsius","-","-","-","-","157.0","Celsius","-","-","","-",""
"N#CCN1C=C[N+](=C1)C.C(#N)[N-]C#N","-","-","AUTO_851","C0448_A0056","A133072","-","-","-","-","-","210.0","Celsius","-","-","-","-","210.0","Celsius","-","-","","-",""
"N#CCCN1C=C[N+](=C1)C.C(#N)[N-]C#N","-","-","AUTO_852","C0197_A0056","A133072","-","-","-","-","-","161.0","Celsius","-","-","-","-","161.0","Celsius","-","-","","-",""
"N#CCCCCN1C=C[N+](=C1)C.C(#N)[N-]C#N","-","-","AUTO_853","C0196_A0056","A133072","-","-","-","-","-","247.0","Celsius","-","-","-","-","247.0","Celsius","-","-","","-",""
"N#CCCCCC[N+]=1C=CN(C1)C.C(#N)[N-]C#N","-","-","AUTO_854","C1509_A0056","A133072","-","-","-","-","-","264.0","Celsius","-","-","-","-","264.0","Celsius","-","-","","-",""
"N#CCCCCCC[N+]=1C=CN(C1)C.C(#N)[N-]C#N","-","-","AUTO_855","C1510_A0056","A133072","-","-","-","-","-","266.0","Celsius","-","-","-","-","266.0","Celsius","-","-","","-",""
"N#CCC[N+]=1C=CN(C1)CC#N.C(#N)[N-]C#N","-","-","AUTO_856","C1517_A0056","A133072","-","-","-","-","-","148.0","Celsius","-","-","-","-","148.0","Celsius","-","-","","-",""
"N#CCCC[N+]=1C=CN(C1)CCC#N.C(#N)[N-]C#N","-","-","AUTO_857","C1518_A0056","A133072","-","-","-","-","-","164.0","Celsius","-","-","-","-","164.0","Celsius","-","-","","-",""
"N#CCCCC[N+]=1C=CN(C1)CCC#N.C(#N)[N-]C#N","-","-","AUTO_858","C1519_A0056","A133072","-","-","-","-","-","170.0","Celsius","-","-","-","-","170.0","Celsius","-","-","","-",""
"N#CCCCCC[N+]=1C=CN(C1)CCC#N.C(#N)[N-]C#N","-","-","AUTO_859","C1520_A0056","A133072","-","-","-","-","-","165.0","Celsius","-","-","-","-","165.0","Celsius","-","-","","-",""
"N#CCCCCCC[N+]=1C=CN(C1)CCC#N.C(#N)[N-]C#N","-","-","AUTO_860","C1521_A0056","A133072","-","-","-","-","-","157.0","Celsius","-","-","-","-","157.0","Celsius","-","-","","-",""
"COCC[N+](=C(N(C)C)N(C)C)C.FC(S(=O)(=O)[N-]S(=O)(=O)C(F)(F)F)(F)F","-","-","AUTO_861","C1529_A0048","A133072","-","-","-","-","-","425.0","Celsius","-","-","-","-","425.0","Celsius","-","-","","-",""
"COCC[N+](=C(N(C)C)N(C)C)CC.FC(S(=O)(=O)[N-]S(=O)(=O)C(F)(F)F)(F)F","-","-","AUTO_862","C1530_A0048","A133072","-","-","-","-","-","420.0","Celsius","-","-","-","-","420.0","Celsius","-","-","","-",""
"COCC[N+](=C1N(C)CCN1C)C.FC(S(=O)(=O)[N-]S(=O)(=O)C(F)(F)F)(F)F","-","-","AUTO_863","C1531_A0048","A133072","-","-","-","-","-","409.0","Celsius","-","-","-","-","409.0","Celsius","-","-","","-",""
"COCC[N+](=C1N(C)CCN1C)CC.FC(S(=O)(=O)[N-]S(=O)(=O)C(F)(F)F)(F)F","-","-","AUTO_864","C1532_A0048","A133072","-","-","-","-","-","387.0","Celsius","-","-","-","-","387.0","Celsius","-","-","","-",""
"COC(=O)C[N+](=C(N(C)C)N(C)C)C.FC(S(=O)(=O)[N-]S(=O)(=O)C(F)(F)F)(F)F","-","-","AUTO_865","C1533_A0048","A133072","-","-","-","-","-","320.0","Celsius","-","-","-","-","320.0","Celsius","-","-","","-",""
"COC(=O)C[N+](=C(N(C)C)N(C)C)CC.FC(S(=O)(=O)[N-]S(=O)(=O)C(F)(F)F)(F)F","-","-","AUTO_866","C1534_A0048","A133072","-","-","-","-","-","301.0","Celsius","-","-","-","-","301.0","Celsius","-","-","","-",""
"COC(=O)C[N+](=C1N(C)CCN1C)C.FC(S(=O)(=O)[N-]S(=O)(=O)C(F)(F)F)(F)F","-","-","AUTO_867","C1535_A0048","A133072","-","-","-","-","-","341.0","Celsius","-","-","-","-","341.0","Celsius","-","-","","-",""
"COC(=O)C[N+](=C1N(C)CCN1C)CC.FC(S(=O)(=O)[N-]S(=O)(=O)C(F)(F)F)(F)F","-","-","AUTO_868","C1536_A0048","A133072","-","-","-","-","-","338.0","Celsius","-","-","-","-","338.0","Celsius","-","-","","-",""
"CCCCCCCCCCCCCC[P+](CCCCCC)(CCCCCC)CCCCCC.N1=C[N-]C2=C1C=CC=C2","-","-","AUTO_869","C1119_A0179","A133072","-","-","-","-","-","314.0","Celsius","-","-","-","-","314.0","Celsius","-","-","","-",""
"CCCCCCCCCCCCCC[P+](CCCCCC)(CCCCCC)CCCCCC.BrC=1C=CC2=C(N=C[N-]2)C1","-","-","AUTO_870","C1119_A0180","A133072","-","-","-","-","-","327.0","Celsius","-","-","-","-","327.0","Celsius","-","-","","-",""
"CCCCCCCCCCCCCC[P+](CCCCCC)(CCCCCC)CCCCCC.CSC=1[N-]C2=C(N1)C=CC=C2","-","-","AUTO_871","C1119_A0181","A133072","-","-","-","-","-","319.0","Celsius","-","-","-","-","319.0","Celsius","-","-","","-",""
"CCCCCCCCCCCCCC[P+](CCCCCC)(CCCCCC)CCCCCC.C(#N)C=1[N-]C=CC1","-","-","AUTO_872","C1119_A0182","A133072","-","-","-","-","-","316.0","Celsius","-","-","-","-","316.0","Celsius","-","-","","-",""
"CCCCCCCCCCCCCC[P+](CCCCCC)(CCCCCC)CCCCCC.FC(C1=N[N-]C=C1)(F)F","-","-","AUTO_873","C1119_A0109","A133072","-","-","-","-","-","260.0","Celsius","-","-","-","-","260.0","Celsius","-","-","","-",""
"CCCCCCCCCCCCCC[P+](CCCCCC)(CCCCCC)CCCCCC.CC1=N[N-]C(=C1)C(F)(F)F","-","-","AUTO_874","C1119_A0110","A133072","-","-","-","-","-","260.0","Celsius","-","-","-","-","260.0","Celsius","-","-","","-",""
"CCCCCCCCCCCCCC[P+](CCCCCC)(CCCCCC)CCCCCC.N1N=N[C-]=C1","-","-","AUTO_875","C1119_A0098","A133072","-","-","-","-","-","328.0","Celsius","-","-","-","-","328.0","Celsius","-","-","","-",""
"CCCCCCCCCCCCCC[P+](CCCCCC)(CCCCCC)CCCCCC.N1N=[C-]N=C1","-","-","AUTO_876","C1119_A0101","A133072","-","-","-","-","-","320.0","Celsius","-","-","-","-","320.0","Celsius","-","-","","-",""
"CCCCCC[N+](CCO)(C)C.[N-]1C=NC=C1","-","-","AUTO_877","C1537_A0183","A133072","-","-","-","-","-","160.0","Celsius","-","-","-","-","160.0","Celsius","-","-","","-",""
"CCCCCC[N+](CCO)(C)C.C[C@@H](O)[C@H](N)C([O-])=O","-","-","AUTO_878","C1537_A0184","A133072","-","-","-","-","-","200.0","Celsius","-","-","-","-","200.0","Celsius","-","-","","-",""
"CCCC[P+](CC)(CC)CC.FC(C1=N[N-]C=C1)(F)F","-","-","AUTO_879","C0519_A0109","A133072","-","-","-","-","-","264.0","Celsius","-","-","-","-","264.0","Celsius","-","-","","-",""
"C(CCCCCCC)[P+](CC)(CC)CC.FC(C1=N[N-]C=C1)(F)F","-","-","AUTO_880","C1210_A0109","A133072","-","-","-","-","-","254.0","Celsius","-","-","-","-","254.0","Celsius","-","-","","-",""
"CCCC[P+](CC)(CC)CC.CC1=N[N-]C(=C1)C(F)(F)F","-","-","AUTO_881","C0519_A0110","A133072","-","-","-","-","-","231.0","Celsius","-","-","-","-","231.0","Celsius","-","-","","-",""
"C(CCCCCCC)[P+](CC)(CC)CC.CC1=N[N-]C(=C1)C(F)(F)F","-","-","AUTO_882","C1210_A0110","A133072","-","-","-","-","-","237.0","Celsius","-","-","-","-","237.0","Celsius","-","-","","-",""
"CCCC[P+](CC)(CC)CC.[N-]1N=CC2=CC=CC=C12","-","-","AUTO_883","C0519_A0111","A133072","-","-","-","-","-","286.0","Celsius","-","-","-","-","286.0","Celsius","-","-","","-",""
"C(CCCCCCC)[P+](CC)(CC)CC.[N-]1N=CC2=CC=CC=C12","-","-","AUTO_884","C1210_A0111","A133072","-","-","-","-","-","282.0","Celsius","-","-","-","-","282.0","Celsius","-","-","","-",""
"CCCCCCCCCCCCCC[P+](CCCCCC)(CCCCCC)CCCCCC.[N-]1N=CC2=CC=CC=C12","-","-","AUTO_885","C1119_A0111","A133072","-","-","-","-","-","296.0","Celsius","-","-","-","-","296.0","Celsius","-","-","","-",""
"CCCC[N+]1(C)CCCC1.FC(S(=O)(=O)[N-]S(=O)(=O)C(F)(F)F)(F)F","-","-","AUTO_886","C0315_A0048","A133072","-","-","-","-","-","445.0","Celsius","-","-","-","-","445.0","Celsius","-","-","","-",""
"CC[S+](C)CC.FC(S(=O)(=O)[N-]S(=O)(=O)C(F)(F)F)(F)F","-","-","AUTO_887","C1280_A0048","A133072","-","-","-","-","-","295.0","Celsius","-","-","-","-","295.0","Celsius","-","-","","-",""
"CC[S+](CC)CC.FC(S(=O)(=O)[N-]S(=O)(=O)C(F)(F)F)(F)F","-","-","AUTO_888","C0598_A0048","A133072","-","-","-","-","-","290.0","Celsius","-","-","-","-","290.0","Celsius","-","-","","-",""
"CCC[S+](CC)CC.FC(S(=O)(=O)[N-]S(=O)(=O)C(F)(F)F)(F)F","-","-","AUTO_889","C1281_A0048","A133072","-","-","-","-","-","280.0","Celsius","-","-","-","-","280.0","Celsius","-","-","","-",""
"CN(C(=[NH2+])N(C)C)C.[O-]C1=CC=CC=C1","-","-","AUTO_890","C1490_A0152","A133072","-","-","-","-","-","104.0","Celsius","-","-","-","-","104.0","Celsius","-","-","","-",""
"CN(C(=[NH2+])N(C)C)C.[O-]C1=CC=C(C=C1)C","-","-","AUTO_891","C1490_A0153","A133072","-","-","-","-","-","100.0","Celsius","-","-","-","-","100.0","Celsius","-","-","","-",""
"CN(C(=[NH2+])N(C)C)C.COC1=CC=C(C=C1)[O-]","-","-","AUTO_892","C1490_A0154","A133072","-","-","-","-","-","115.0","Celsius","-","-","-","-","115.0","Celsius","-","-","","-",""
"CN(C(=[NH2+])N(C)C)C.[O-]C1=CC=C(C=C1)F","-","-","AUTO_893","C1490_A0155","A133072","-","-","-","-","-","100.0","Celsius","-","-","-","-","100.0","Celsius","-","-","","-",""
"CCCCCCCC[N+](C)(C)C.FC(S(=O)(=O)[N-]S(=O)(=O)C(F)(F)F)(F)F","-","-","AUTO_894","C0973_A0048","A133072","-","-","-","-","-","380.0","Celsius","-","-","-","-","380.0","Celsius","-","-","","-",""
"CCCCCC[N+](C)(C)C.FC(S(=O)(=O)[N-]S(=O)(=O)C(F)(F)F)(F)F","-","-","AUTO_895","C0709_A0048","A133072","-","-","-","-","-","395.0","Celsius","-","-","-","-","395.0","Celsius","-","-","","-",""
"CCCC[N+](C)(C)C.FC(S(=O)(=O)[N-]S(=O)(=O)C(F)(F)F)(F)F","-","-","AUTO_896","C1095_A0048","A133072","-","-","-","-","-","400.0","Celsius","-","-","-","-","400.0","Celsius","-","-","","-",""
"CCCC[N+](CC)(C)C.FC(S(=O)(=O)[N-]S(=O)(=O)C(F)(F)F)(F)F","-","-","AUTO_897","C0025_A0048","A133072","-","-","-","-","-","446.0","Celsius","-","-","-","-","446.0","Celsius","-","-","","-",""