"SMILES","CASRN","EXTERNALID","N","NAME","ARTICLEID","PUBMEDID","PAGE","TABLE","Melting Point","UNIT {Melting Point}","Decomposition","UNIT {Decomposition}","Glass-transition temperature (Tg)","UNIT {Glass-transition temperature (Tg)}","Melting Point {measured, converted}","UNIT {Melting Point}","Decomposition {measured, converted}","UNIT {Decomposition}","Glass-transition temperature (Tg) {measured, converted}","UNIT {Glass-transition temperature (Tg)}","weight loss","UNIT {weight loss}","Solvent"
"CC[N+]1(C)CCCC1.S(C)(=O)(=O)[O-]","-","-","AUTO_379","C0876_A0054","A132065","-","-","-","40.0","Celsius","-","-","-","-","40.0","Celsius","-","-","-","-","","-",""
"CC[N+]1(C)CCCC1.FC(C(C(C(F)(F)F)(F)F)(F)F)(S(=O)(=O)[O-])F","-","-","AUTO_380","C0876_A0079","A132065","-","-","-","176.0","Celsius","-","-","-","-","176.0","Celsius","-","-","-","-","","-",""
"CC[N+]1(C)CCCC1.S(=O)(=O)([O-])C1=CC=C(C)C=C1","-","-","AUTO_381","C0876_A0030","A132065","-","-","-","120.0","Celsius","-","-","-","-","120.0","Celsius","-","-","-","-","","-",""
"CCC[N+]1(C)CCCC1.C(#N)[N-]C#N","-","-","AUTO_382","C0152_A0056","A132065","-","-","-","-35.0","Celsius","-","-","-","-","-35.0","Celsius","-","-","-","-","","-",""
"CCC[N+]1(C)CCCC1.FS(=O)(=O)[N-]S(F)(=O)=O","-","-","AUTO_383","C0152_A0027","A132065","-","-","-","-18.0","Celsius","-","-","-","-","-18.0","Celsius","-","-","-","-","","-",""
"CCC[N+]1(C)CCCC1.S(C)(=O)(=O)[O-]","-","-","AUTO_384","C0152_A0054","A132065","-","-","-","80.0","Celsius","-","-","-","-","80.0","Celsius","-","-","-","-","","-",""
"CCC[N+]1(C)CCCC1.S(=O)(=O)([O-])C1=CC=C(C)C=C1","-","-","AUTO_385","C0152_A0030","A132065","-","-","-","80.0","Celsius","-","-","-","-","80.0","Celsius","-","-","-","-","","-",""
"CCCC[N+]1(C)CCCC1.F[B-](F)(F)F","-","-","AUTO_386","C0315_A0020","A132065","-","-","-","78.0","Celsius","-","-","-","-","78.0","Celsius","-","-","-","-","","-",""
"CCCC[N+]1(C)CCCC1.FC(F)(F)[B-](F)(F)F","-","-","AUTO_387","C0315_A0008","A132065","-","-","-","-18.0","Celsius","-","-","-","-","-18.0","Celsius","-","-","-","-","","-",""
"CCCC[N+]1(C)CCCC1.FC(C(F)(F)F)(F)[B-](F)(F)F","-","-","AUTO_388","C0315_A0043","A132065","-","-","-","22.0","Celsius","-","-","-","-","22.0","Celsius","-","-","-","-","","-",""
"CCCC[N+]1(C)CCCC1.FC(C(F)(F)[B-](F)(F)F)(C(F)(F)F)F","-","-","AUTO_389","C0315_A0009","A132065","-","-","-","53.0","Celsius","-","-","-","-","53.0","Celsius","-","-","-","-","","-",""
"CCCC[N+]1(C)CCCC1.FC(C(C(F)(F)[B-](F)(F)F)(F)F)(C(F)(F)F)F","-","-","AUTO_390","C0315_A0021","A132065","-","-","-","61.0","Celsius","-","-","-","-","61.0","Celsius","-","-","-","-","","-",""
"CCCC[N+]1(C)CCCC1.C(#N)[N-]C#N","-","-","AUTO_391","C0315_A0056","A132065","-","-","-","-55.0","Celsius","-","-","-","-","-55.0","Celsius","-","-","-","-","","-",""
"CCCC[N+]1(C)CCCC1.CS(=O)(=O)[N-]S(C)(=O)=O","-","-","AUTO_392","C0315_A0032","A132065","-","-","-","-58.0","Celsius","-","-","-","-","-58.0","Celsius","-","-","-","-","","-",""
"CCCC[N+]1(C)CCCC1.S(C)(=O)(=O)[O-]","-","-","AUTO_393","C0315_A0054","A132065","-","-","-","63.0","Celsius","-","-","-","-","63.0","Celsius","-","-","-","-","","-",""
"CCCC[N+]1(C)CCCC1.FC(C(C(C(F)(F)F)(F)F)(F)F)(S(=O)(=O)[O-])F","-","-","AUTO_394","C0315_A0079","A132065","-","-","-","94.0","Celsius","-","-","-","-","94.0","Celsius","-","-","-","-","","-",""
"CCCC[N+]1(C)CCCC1.S(=O)(=O)([O-])C1=CC=C(C)C=C1","-","-","AUTO_395","C0315_A0030","A132065","-","-","-","115.0","Celsius","-","-","-","-","115.0","Celsius","-","-","-","-","","-",""
"CCCC[N+]1(C)CCCC1.P(=O)(O)(O)[O-]","-","-","AUTO_396","C0315_A0012","A132065","-","-","-","112.0","Celsius","-","-","-","-","112.0","Celsius","-","-","-","-","","-",""
"CCCC[N+]1(C)CCCC1.C(C)(=O)[O-]","-","-","AUTO_397","C0315_A0087","A132065","-","-","-","81.0","Celsius","-","-","-","-","81.0","Celsius","-","-","-","-","","-",""
"CCCCCC[N+]1(C)CCCC1.C(#N)[N-]C#N","-","-","AUTO_398","C0821_A0056","A132065","-","-","-","-55.0","Celsius","-","-","-","-","-55.0","Celsius","-","-","-","-","","-",""
"CCCCCC[N+]1(C)CCCC1.CS(=O)(=O)[N-]S(C)(=O)=O","-","-","AUTO_399","C0821_A0032","A132065","-","-","-","-55.0","Celsius","-","-","-","-","-55.0","Celsius","-","-","-","-","","-",""
"CCCCCC[N+]1(C)CCCC1.S(C)(=O)(=O)[O-]","-","-","AUTO_400","C0821_A0054","A132065","-","-","-","86.0","Celsius","-","-","-","-","86.0","Celsius","-","-","-","-","","-",""
"CCCCCC[N+]1(C)CCCC1.FC(C(C(C(F)(F)F)(F)F)(F)F)(S(=O)(=O)[O-])F","-","-","AUTO_401","C0821_A0079","A132065","-","-","-","120.0","Celsius","-","-","-","-","120.0","Celsius","-","-","-","-","","-",""
"CCCCCC[N+]1(C)CCCC1.S(=O)(=O)([O-])C1=CC=C(C)C=C1","-","-","AUTO_402","C0821_A0030","A132065","-","-","-","137.0","Celsius","-","-","-","-","137.0","Celsius","-","-","-","-","","-",""
"COC(=O)C[N+]1(C)CCCC1.C(F)(F)(F)S(=O)(=O)[N-]S(=O)(=O)C(F)(F)F","-","-","AUTO_403","C1153_A0048","A132065","-","-","-","-42.0","Celsius","-","-","-","-","-42.0","Celsius","-","-","-","-","","-",""
"CCCCC[N+]1(C)CCCC1.FC(C(C(C(F)(F)F)(F)F)(F)F)(S(=O)(=O)[O-])F","-","-","AUTO_404","C0397_A0079","A132065","-","-","-","117.0","Celsius","-","-","-","-","117.0","Celsius","-","-","-","-","","-",""
"C[NH+]1CCCC1.FC(C(=O)[O-])(F)F","-","-","AUTO_405","C1075_A0064","A132065","-","-","-","38.0","Celsius","-","-","-","-","38.0","Celsius","-","-","-","-","","-",""
"C[NH+]1CCCC1.C(=O)[O-]","-","-","AUTO_406","C1075_A0024","A132065","-","-","-","-32.0","Celsius","-","-","-","-","-32.0","Celsius","-","-","-","-","","-",""
"COC[N+]1(C)CCCC1.F[B-](F)(F)F","-","-","AUTO_407","C1091_A0020","A132065","-","-","-","-18.0","Celsius","-","-","-","-","-18.0","Celsius","-","-","-","-","","-",""
"COC[N+]1(C)CCCC1.C(F)(F)(F)S(=O)(=O)[N-]S(=O)(=O)C(F)(F)F","-","-","AUTO_408","C1091_A0048","A132065","-","-","-","-21.0","Celsius","-","-","-","-","-21.0","Celsius","-","-","-","-","","-",""
"COC[N+]1(C)CCCC1.FC(F)(F)[B-](F)(F)F","-","-","AUTO_409","C1091_A0008","A132065","-","-","-","-4.0","Celsius","-","-","-","-","-4.0","Celsius","-","-","-","-","","-",""
"COC[N+]1(C)CCCC1.FC(C(F)(F)F)(F)[B-](F)(F)F","-","-","AUTO_410","C1091_A0043","A132065","-","-","-","26.0","Celsius","-","-","-","-","26.0","Celsius","-","-","-","-","","-",""
"COCC[N+]1(C)CCCC1.F[B-](F)(F)F","-","-","AUTO_411","C0141_A0020","A132065","-","-","-","12.0","Celsius","-","-","-","-","12.0","Celsius","-","-","-","-","","-",""
"COCC[N+]1(C)CCCC1.FC(F)(F)[B-](F)(F)F","-","-","AUTO_412","C0141_A0008","A132065","-","-","-","-16.0","Celsius","-","-","-","-","-16.0","Celsius","-","-","-","-","","-",""
"COCC[N+]1(C)CCCC1.FC(C(F)(F)F)(F)[B-](F)(F)F","-","-","AUTO_413","C0141_A0043","A132065","-","-","-","-3.0","Celsius","-","-","-","-","-3.0","Celsius","-","-","-","-","","-",""
"CCC[N+]1(C)CCCCC1.FC(F)(F)C(F)(F)S(=O)(=O)[N-]S(=O)(=O)C(F)(F)F","-","-","AUTO_414","C0155_A0074","A132065","-","-","-","-4.0","Celsius","-","-","-","-","-4.0","Celsius","-","-","-","-","","-",""
"CC[N+]1(CCCCC1)CC(=O)OC.C(F)(F)(F)S(=O)(=O)[N-]S(=O)(=O)C(F)(F)F","-","-","AUTO_415","C0044_A0048","A132065","-","-","-","-42.0","Celsius","-","-","-","-","-42.0","Celsius","-","-","-","-","","-",""
"NC1CC(C)(C)[NH2+]C(C1)(C)C.FC(F)(F)C(=O)[CH-]C(=O)C(F)(F)F","-","-","AUTO_416","C0867_A0010","A132065","-","-","-","88.0","Celsius","-","-","-","-","88.0","Celsius","-","-","-","-","","-",""
"NC1CC(C)(C)[NH2+]C(C1)(C)C.FC(F)(F)C(=O)[CH-]C(=O)C1=CC=CO1","-","-","AUTO_417","C0867_A0036","A132065","-","-","-","152.0","Celsius","-","-","-","-","152.0","Celsius","-","-","-","-","","-",""
"COCC[N+]1(C)CCCCC1.FC(F)(F)[B-](F)(F)F","-","-","AUTO_418","C0728_A0008","A132065","-","-","-","-16.0","Celsius","-","-","-","-","-16.0","Celsius","-","-","-","-","","-",""
"COCC[N+]1(C)CCCCC1.FC(C(F)(F)F)(F)[B-](F)(F)F","-","-","AUTO_419","C0728_A0043","A132065","-","-","-","-15.0","Celsius","-","-","-","-","-15.0","Celsius","-","-","-","-","","-",""
"COCC[N+]1(C)CCCCC1.FC(C(F)(F)[B-](F)(F)F)(C(F)(F)F)F","-","-","AUTO_420","C0728_A0009","A132065","-","-","-","-9.0","Celsius","-","-","-","-","-9.0","Celsius","-","-","-","-","","-",""
"COCC[N+]1(C)CCCCC1.FC(C(C(F)(F)[B-](F)(F)F)(F)F)(C(F)(F)F)F","-","-","AUTO_421","C0728_A0021","A132065","-","-","-","20.0","Celsius","-","-","-","-","20.0","Celsius","-","-","-","-","","-",""
"CCCC[N+]1(C)CCCCC1.F[B-](F)(F)F","-","-","AUTO_422","C0137_A0020","A132065","-","-","-","146.0","Celsius","-","-","-","-","146.0","Celsius","-","-","-","-","","-",""
"CCCC[N+]1(C)CCCCC1.FC(F)(F)[B-](F)(F)F","-","-","AUTO_423","C0137_A0008","A132065","-","-","-","12.0","Celsius","-","-","-","-","12.0","Celsius","-","-","-","-","","-",""
"CCCC[N+]1(C)CCCCC1.FC(C(F)(F)F)(F)[B-](F)(F)F","-","-","AUTO_424","C0137_A0043","A132065","-","-","-","41.0","Celsius","-","-","-","-","41.0","Celsius","-","-","-","-","","-",""
"CCCC[N+]1(C)CCCCC1.FC(C(F)(F)[B-](F)(F)F)(C(F)(F)F)F","-","-","AUTO_425","C0137_A0009","A132065","-","-","-","81.0","Celsius","-","-","-","-","81.0","Celsius","-","-","-","-","","-",""
"CCCC[N+]1(C)CCCCC1.FC(C(C(F)(F)[B-](F)(F)F)(F)F)(C(F)(F)F)F","-","-","AUTO_426","C0137_A0021","A132065","-","-","-","92.0","Celsius","-","-","-","-","92.0","Celsius","-","-","-","-","","-",""
"CCCCCCCC[N+]1(C)CCCCC1.F[B-](F)(F)F","-","-","AUTO_427","C0168_A0020","A132065","-","-","-","92.0","Celsius","-","-","-","-","92.0","Celsius","-","-","-","-","","-",""
"CCCCCCCC[N+]1(C)CCCCC1.FC(S(=O)(=O)[O-])(F)F","-","-","AUTO_428","C0168_A0084","A132065","-","-","-","47.0","Celsius","-","-","-","-","47.0","Celsius","-","-","-","-","","-",""
"CC[NH+]1CCC=C1C.C(F)(F)(F)S(=O)(=O)[N-]S(=O)(=O)C(F)(F)F","-","-","AUTO_429","C0645_A0048","A132065","-","-","-","45.0","Celsius","-","-","-","-","45.0","Celsius","-","-","-","-","","-",""
"CCC[NH+]1CCC=C1C.[I-]","-","-","AUTO_430","C1100_A0069","A132065","-","-","-","85.0","Celsius","-","-","-","-","85.0","Celsius","-","-","-","-","","-",""
"CCC[NH+]1CCC=C1C.C(F)(F)(F)S(=O)(=O)[N-]S(=O)(=O)C(F)(F)F","-","-","AUTO_431","C1100_A0048","A132065","-","-","-","19.0","Celsius","-","-","-","-","19.0","Celsius","-","-","-","-","","-",""
"CCCC[NH+]1CCC=C1C.[I-]","-","-","AUTO_432","C0502_A0069","A132065","-","-","-","111.0","Celsius","-","-","-","-","111.0","Celsius","-","-","-","-","","-",""
"CCCC[NH+]1CCC=C1C.C(F)(F)(F)S(=O)(=O)[N-]S(=O)(=O)C(F)(F)F","-","-","AUTO_433","C0502_A0048","A132065","-","-","-","36.0","Celsius","-","-","-","-","36.0","Celsius","-","-","-","-","","-",""
"CCCC[N+]1=CC=CC=C1.F[B-](F)(F)F","-","-","AUTO_434","C0734_A0020","A132065","-","-","-","15.0","Celsius","-","-","-","-","15.0","Celsius","-","-","-","-","","-",""
"CCCC[N+]1=CC=CC=C1.C(F)(F)(F)S(=O)(=O)[N-]S(=O)(=O)C(F)(F)F","-","-","AUTO_435","C0734_A0048","A132065","-","-","-","26.0","Celsius","-","-","-","-","26.0","Celsius","-","-","-","-","","-",""
"CCCC[N+]1=CC=CC=C1.FC(COS(=O)(=O)[O-])(C(C(C(F)F)(F)F)(F)F)F","-","-","AUTO_436","C0734_A0078","A132065","-","-","-","3.0","Celsius","-","-","-","-","3.0","Celsius","-","-","-","-","","-",""
"CCCC[N+]1=CC=CC=C1.C(C1=CC=CC=C1)(=O)[O-]","-","-","AUTO_437","C0734_A0031","A132065","-","-","-","11.0","Celsius","-","-","-","-","11.0","Celsius","-","-","-","-","","-",""
"CCCCCCCCCCCC[N+]1=CC=CC=C1.F[P-](F)(F)(F)(F)F","-","-","AUTO_438","C0527_A0011","A132065","-","-","-","106.0","Celsius","-","-","-","-","106.0","Celsius","-","-","-","-","","-",""
"CCCCCCCCCCCC[N+]1=CC=CC=C1.FC(C=1C=C(C=C(C1)C(F)(F)F)[B-](C2=CC(=CC(=C2)C(F)(F)F)C(F)(F)F)(C3=CC(=CC(=C3)C(F)(F)F)C(F)(F)F)C4=CC(=CC(=C4)C(F)(F)F)C(F)(F)F)(F)F","-","-","AUTO_439","C0527_A0006","A132065","-","-","-","64.0","Celsius","-","-","-","-","64.0","Celsius","-","-","-","-","","-",""
"CCCCCCCCCCCCCC[N+]1=CC=CC=C1.F[P-](F)(F)(F)(F)F","-","-","AUTO_440","C0209_A0011","A132065","-","-","-","124.0","Celsius","-","-","-","-","124.0","Celsius","-","-","-","-","","-",""
"CCCCCCCCCCCCCCCC[N+]1=CC=CC=C1.F[P-](F)(F)(F)(F)F","-","-","AUTO_441","C0428_A0011","A132065","-","-","-","126.0","Celsius","-","-","-","-","126.0","Celsius","-","-","-","-","","-",""
"CCCCCCCCCCCCCCCCCC[N+]1=CC=CC=C1.F[P-](F)(F)(F)(F)F","-","-","AUTO_442","C0279_A0011","A132065","-","-","-","126.0","Celsius","-","-","-","-","126.0","Celsius","-","-","-","-","","-",""
"CCCC[N+]1=CC=C(C=C1)C.C(C1=CC=CC=C1)(=O)[O-]","-","-","AUTO_443","C0845_A0031","A132065","-","-","-","10.0","Celsius","-","-","-","-","10.0","Celsius","-","-","-","-","","-",""
"CCCCCCCCCCCC[N+]1=CC=CC(=C1)C.F[P-](F)(F)(F)(F)F","-","-","AUTO_444","C1109_A0011","A132065","-","-","-","55.0","Celsius","-","-","-","-","55.0","Celsius","-","-","-","-","","-",""
"CCCCCCCCCCCC[N+]1=CC=C(C=C1)C.F[P-](F)(F)(F)(F)F","-","-","AUTO_445","C0853_A0011","A132065","-","-","-","56.0","Celsius","-","-","-","-","56.0","Celsius","-","-","-","-","","-",""
"CCCCCCCCCCCCCC[N+]1=CC=CC(=C1)C.F[P-](F)(F)(F)(F)F","-","-","AUTO_446","C0721_A0011","A132065","-","-","-","68.0","Celsius","-","-","-","-","68.0","Celsius","-","-","-","-","","-",""
"CCCCCCCCCCCCCC[N+]1=CC=C(C=C1)C.F[P-](F)(F)(F)(F)F","-","-","AUTO_447","C0676_A0011","A132065","-","-","-","71.0","Celsius","-","-","-","-","71.0","Celsius","-","-","-","-","","-",""
"CCCCCCCCCCCCCCCC[N+]1=CC=CC(=C1)C.F[P-](F)(F)(F)(F)F","-","-","AUTO_448","C0701_A0011","A132065","-","-","-","74.0","Celsius","-","-","-","-","74.0","Celsius","-","-","-","-","","-",""
"CCCCCCCCCCCCCCCC[N+]1=CC=C(C=C1)C.F[P-](F)(F)(F)(F)F","-","-","AUTO_449","C0620_A0011","A132065","-","-","-","75.0","Celsius","-","-","-","-","75.0","Celsius","-","-","-","-","","-",""
"CCCCCCCCCCCCCCCCCC[N+]1=CC=CC(=C1)C.F[P-](F)(F)(F)(F)F","-","-","AUTO_450","C0844_A0011","A132065","-","-","-","87.0","Celsius","-","-","-","-","87.0","Celsius","-","-","-","-","","-",""
"CCCCCCCCCCCCCCCCCC[N+]1=CC=C(C=C1)C.F[P-](F)(F)(F)(F)F","-","-","AUTO_451","C0222_A0011","A132065","-","-","-","88.0","Celsius","-","-","-","-","88.0","Celsius","-","-","-","-","","-",""
"N#CCCC[N+]1=CC=CC=C1.[Cl-]","-","-","AUTO_452","C0233_A0033","A132065","-","-","-","101.0","Celsius","-","-","-","-","101.0","Celsius","-","-","-","-","","-",""
"N#CCCC[N+]1=CC=CC=C1.F[B-](F)(F)F","-","-","AUTO_453","C0233_A0020","A132065","-","-","-","62.0","Celsius","-","-","-","-","62.0","Celsius","-","-","-","-","","-",""
"N#CCCC[N+]1=CC=CC=C1.C(F)(F)(F)S(=O)(=O)[N-]S(=O)(=O)C(F)(F)F","-","-","AUTO_454","C0233_A0048","A132065","-","-","-","-65.0","Celsius","-","-","-","-","-65.0","Celsius","-","-","-","-","","-",""
"N#CCCC[N+]1=CC=CC=C1.F[P-](F)(F)(F)(F)F","-","-","AUTO_455","C0233_A0011","A132065","-","-","-","95.0","Celsius","-","-","-","-","95.0","Celsius","-","-","-","-","","-",""
"CC[N+]1=CC=CC=C1.FC(COS(=O)(=O)[O-])(C(C(C(F)F)(F)F)(F)F)F","-","-","AUTO_456","C0062_A0078","A132065","-","-","-","-11.0","Celsius","-","-","-","-","-11.0","Celsius","-","-","-","-","","-",""
"FC(C(S(F)(F)(F)(F)F)(F)F)(CC[N+]1=CC=CC=C1)F.C(F)(F)(F)S(=O)(=O)[N-]S(=O)(=O)C(F)(F)F","-","-","AUTO_457","C0541_A0048","A132065","-","-","-","33.0","Celsius","-","-","-","-","33.0","Celsius","-","-","-","-","","-",""
"FS(C(C(CCCC[N+]1=CC=CC=C1)(F)F)(F)F)(F)(F)(F)F.C(F)(F)(F)S(=O)(=O)[N-]S(=O)(=O)C(F)(F)F","-","-","AUTO_458","C1057_A0048","A132065","-","-","-","18.0","Celsius","-","-","-","-","18.0","Celsius","-","-","-","-","","-",""
"FC(C(C(C(S(F)(F)(F)(F)F)(F)F)(F)F)(F)F)(CC[N+]1=CC=CC=C1)F.C(F)(F)(F)S(=O)(=O)[N-]S(=O)(=O)C(F)(F)F","-","-","AUTO_459","C0570_A0048","A132065","-","-","-","36.0","Celsius","-","-","-","-","36.0","Celsius","-","-","-","-","","-",""
"FCCC[N+]1=CC=C(C=C1)C2=CC=NC=C2.C(F)(F)(F)S(=O)(=O)[N-]S(=O)(=O)C(F)(F)F","-","-","AUTO_460","C1008_A0048","A132065","-","-","-","62.0","Celsius","-","-","-","-","62.0","Celsius","-","-","-","-","","-",""
"FCCC[N+]1=CC=C(C=C1)C2=CC=NC=C2.FC(S(=O)(=O)[O-])(F)F","-","-","AUTO_461","C1008_A0084","A132065","-","-","-","88.0","Celsius","-","-","-","-","88.0","Celsius","-","-","-","-","","-",""
"FC(CC[N+]1=CC=C(C=C1)C2=CC=NC=C2)(F)F.C(F)(F)(F)S(=O)(=O)[N-]S(=O)(=O)C(F)(F)F","-","-","AUTO_462","C0096_A0048","A132065","-","-","-","67.0","Celsius","-","-","-","-","67.0","Celsius","-","-","-","-","","-",""
"FC(CC[N+]1=CC=C(C=C1)C2=CC=NC=C2)(F)F.FC(S(=O)(=O)[O-])(F)F","-","-","AUTO_463","C0096_A0084","A132065","-","-","-","98.0","Celsius","-","-","-","-","98.0","Celsius","-","-","-","-","","-",""
"FC(F)(F)C(F)(F)C(F)(F)C(F)(F)C(F)(F)C(F)(F)CC[N+]1=CC=C(C=C1)C2=CC=NC=C2.C(F)(F)(F)S(=O)(=O)[N-]S(=O)(=O)C(F)(F)F","-","-","AUTO_464","C0063_A0048","A132065","-","-","-","52.0","Celsius","-","-","-","-","52.0","Celsius","-","-","-","-","","-",""
"FC(F)(F)C(F)(F)C(F)(F)C(F)(F)C(F)(F)C(F)(F)CC[N+]1=CC=C(C=C1)C2=CC=NC=C2.FC(S(=O)(=O)[O-])(F)F","-","-","AUTO_465","C0063_A0084","A132065","-","-","-","104.0","Celsius","-","-","-","-","104.0","Celsius","-","-","-","-","","-",""
"FC(F)(F)C(F)(F)C(F)(F)C(F)(F)C(F)(F)C(F)(F)C(F)(F)C(F)(F)CC[N+]1=CC=C(C=C1)C2=CC=NC=C2.C(F)(F)(F)S(=O)(=O)[N-]S(=O)(=O)C(F)(F)F","-","-","AUTO_466","C1150_A0048","A132065","-","-","-","94.0","Celsius","-","-","-","-","94.0","Celsius","-","-","-","-","","-",""
"FC(F)(F)C(F)(F)C(F)(F)C(F)(F)C(F)(F)C(F)(F)C(F)(F)C(F)(F)CC[N+]1=CC=C(C=C1)C2=CC=NC=C2.FC(S(=O)(=O)[O-])(F)F","-","-","AUTO_467","C1150_A0084","A132065","-","-","-","109.0","Celsius","-","-","-","-","109.0","Celsius","-","-","-","-","","-",""
"CCCC[N+]1=CC(C)=CC(=C1)C.[Br-]","-","-","AUTO_468","C1087_A0004","A132065","-","-","-","95.0","Celsius","-","-","-","-","95.0","Celsius","-","-","-","-","","-",""
"CCCC[N+]1=CC=C(C=C1)N(C)C.[Br-]","-","-","AUTO_469","C1083_A0004","A132065","-","-","-","222.0","Celsius","-","-","-","-","222.0","Celsius","-","-","-","-","","-",""
"CCCCOC(=O)C1=CC=C[N+](=C1)CCCC.C(F)(F)(F)S(=O)(=O)[N-]S(=O)(=O)C(F)(F)F","-","-","AUTO_470","C0425_A0048","A132065","-","-","-","15.0","Celsius","-","-","-","-","15.0","Celsius","-","-","-","-","","-",""
"CCCCCC[N+]1=CC(C)=CC(=C1)C.C(F)(F)(F)S(=O)(=O)[N-]S(=O)(=O)C(F)(F)F","-","-","AUTO_471","C0791_A0048","A132065","-","-","-","10.0","Celsius","-","-","-","-","10.0","Celsius","-","-","-","-","","-",""
"CCCCCC[N+]1=CC=C(C=C1)N(C)C.[Br-]","-","-","AUTO_472","C0061_A0004","A132065","-","-","-","196.0","Celsius","-","-","-","-","196.0","Celsius","-","-","-","-","","-",""
"CCCCCC[N+]1=CC=C(C(=C1)C)N(C)C.[Br-]","-","-","AUTO_473","C0009_A0004","A132065","-","-","-","119.0","Celsius","-","-","-","-","119.0","Celsius","-","-","-","-","","-",""
"CCCCCC[N+]1=CC=C(C(=C1)C)N(C)C.C(F)(F)(F)S(=O)(=O)[N-]S(=O)(=O)C(F)(F)F","-","-","AUTO_474","C0009_A0048","A132065","-","-","-","-2.0","Celsius","-","-","-","-","-2.0","Celsius","-","-","-","-","","-",""
"CCCCCC[N+]1=CC=C(C=C1)N2CCC(CC2)C.C(F)(F)(F)S(=O)(=O)[N-]S(=O)(=O)C(F)(F)F","-","-","AUTO_475","C0787_A0048","A132065","-","-","-","37.0","Celsius","-","-","-","-","37.0","Celsius","-","-","-","-","","-",""
"OS(=O)(=O)CCC[N+]1=CC=CC=C1.P(=O)(O)(O)[O-]","-","-","AUTO_476","C0777_A0012","A132065","-","-","-","90.0","Celsius","-","-","-","-","90.0","Celsius","-","-","-","-","","-",""
"CCCCCCCCCCCC[N+]1=CC=C2C(=C1)C=CC=C2.FC(C=1C=C(C=C(C1)C(F)(F)F)[B-](C2=CC(=CC(=C2)C(F)(F)F)C(F)(F)F)(C3=CC(=CC(=C3)C(F)(F)F)C(F)(F)F)C4=CC(=CC(=C4)C(F)(F)F)C(F)(F)F)(F)F","-","-","AUTO_477","C0663_A0006","A132065","-","-","-","72.0","Celsius","-","-","-","-","72.0","Celsius","-","-","-","-","","-",""
"CCCCCCCCCCCCCCCCCC[N+]1=CC=C2C(=C1)C=CC=C2.FC(C=1C=C(C=C(C1)C(F)(F)F)[B-](C2=CC(=CC(=C2)C(F)(F)F)C(F)(F)F)(C3=CC(=CC(=C3)C(F)(F)F)C(F)(F)F)C4=CC(=CC(=C4)C(F)(F)F)C(F)(F)F)(F)F","-","-","AUTO_478","C0619_A0006","A132065","-","-","-","31.0","Celsius","-","-","-","-","31.0","Celsius","-","-","-","-","","-",""
"CCCC[N+]1=C(SC[C@H]1CC)C(C)C.[I-]","-","-","AUTO_479","C0516_A0069","A132065","-","-","-","137.0","Celsius","-","-","-","-","137.0","Celsius","-","-","-","-","","-",""
"CCCC[N+]1=C(SC[C@H]1CC)C(C)C.F[B-](F)(F)F","-","-","AUTO_480","C0516_A0020","A132065","-","-","-","111.0","Celsius","-","-","-","-","111.0","Celsius","-","-","-","-","","-",""
"CCCC[N+]1=C(SC[C@H]1CC)C(C)C.F[P-](F)(F)(F)(F)F","-","-","AUTO_481","C0516_A0011","A132065","-","-","-","136.0","Celsius","-","-","-","-","136.0","Celsius","-","-","-","-","","-",""