"SMILES","CASRN","EXTERNALID","N","NAME","ARTICLEID","PUBMEDID","PAGE","TABLE","Melting Point","UNIT {Melting Point}","Decomposition","UNIT {Decomposition}","Glass-transition temperature (Tg)","UNIT {Glass-transition temperature (Tg)}","Melting Point {measured, converted}","UNIT {Melting Point}","Decomposition {measured, converted}","UNIT {Decomposition}","Glass-transition temperature (Tg) {measured, converted}","UNIT {Glass-transition temperature (Tg)}","weight loss","UNIT {weight loss}","Solvent"
"FC(F)(F)S(=O)(=O)[N-]S(=O)(=O)C(F)(F)F.CCC[N+](CCC)(CCC)CC(=O)OCC","-","-","AUTO_2206","-","A140250","-","-","-","-","-","348.0","Celsius","-","-","-","-","348.0","Celsius","-","-","","-",""
"[Cl-].CCCCCCCCCCCCCC[P+](CCCCCC)(CCCCCC)CCCCCC","-","-","AUTO_2208","-","A140250","-","-","-","-","-","350.0","Celsius","-","-","-","-","350.0","Celsius","-","-","","-",""
"OS([O-])(=O)=O.OS(=O)(=O)N1C=C[N+](=C1)S(O)(=O)=O","-","-","AUTO_2210","-","A139546","20499940","-","-","-","-","350.0","Celsius","-","-","-","-","350.0","Celsius","-","-","","-",""
"N#C[B-](C#N)(C#N)C#N.CCCC[N+](CCCC)(CCCC)CCCC","-","-","AUTO_2211","-","A140250","-","-","-","-","-","350.0","Celsius","-","-","-","-","350.0","Celsius","-","-","","-",""
"CCCCN1C=C[N+](CCCC)=N1.FC(F)(F)S(=O)(=O)[N-]S(=O)(=O)C(F)(F)F","-","-","AUTO_2215","-","A140250","-","-","-","-","-","350.0","Celsius","-","-","-","-","350.0","Celsius","-","-","","-",""
"CC1=CC=C(C=C1)S([O-])(=O)=O.CCCCC(CC)CN1C=C[N+](CC(CC)CCCC)=C1","-","-","AUTO_2216","-","A140250","-","-","-","-","-","350.0","Celsius","-","-","-","-","350.0","Celsius","-","-","","-",""
"CCOC(=O)C[N+](CC)(CC)CC.FC(F)(F)S(=O)(=O)[N-]S(=O)(=O)C(F)(F)F","-","-","AUTO_2219","-","A140250","-","-","-","-","-","351.0","Celsius","-","-","-","-","351.0","Celsius","-","-","","-",""
"CC(C)CN1C=C[N+](CC(C)C)=C1.FC(F)(F)S(=O)(=O)[N-]S(=O)(=O)C(F)(F)F","-","-","AUTO_2224","-","A140250","-","-","-","-","-","353.0","Celsius","-","-","-","-","353.0","Celsius","-","-","","-",""
"[O-]S(=O)(=O)C(F)(F)F.FC(F)(F)C(F)(F)C(F)(F)C(F)(F)C(F)(F)C(F)(F)C(F)(F)C(F)(F)C(F)(F)C(F)(F)CC[N+]1=CC=CC=N1","-","-","AUTO_2225","-","A140250","-","-","-","-","-","353.0","Celsius","-","-","-","-","353.0","Celsius","-","-","","-",""
"FC(F)(F)S(=O)(=O)[N-]S(=O)(=O)C(F)(F)F.FC(F)(F)C(F)(F)C(F)(F)C(F)(F)C(F)(F)C(F)(F)C(F)(F)C(F)(F)C(F)(F)C(F)(F)CC[N+]1=CC=CC=N1","-","-","AUTO_2226","-","A140250","-","-","-","-","-","353.0","Celsius","-","-","-","-","353.0","Celsius","-","-","","-",""
"CCCC(NC)=[N+](C)C.FC(F)(F)S(=O)(=O)[N-]S(=O)(=O)C(F)(F)F","-","-","AUTO_2227","-","A140250","-","-","-","-","-","353.0","Celsius","-","-","-","-","353.0","Celsius","-","-","","-",""
"COCCNC(C)=[N+](C)C.FC(F)(F)S(=O)(=O)[N-]S(=O)(=O)C(F)(F)F","-","-","AUTO_2228","-","A140250","-","-","-","-","-","353.0","Celsius","-","-","-","-","353.0","Celsius","-","-","","-",""
"F[P-](F)(F)(F)(F)F.CCCC[N+](CC)(CC)CC","-","-","AUTO_2229","-","A140250","-","-","-","-","-","353.2","Celsius","-","-","-","-","353.2","Celsius","-","-","","-",""
"F[P-](F)(F)(F)(F)F.CCCC[P+](CCCC)(CCCC)CCCC","-","-","AUTO_2231","-","A139568","25241963","-","","-","-","353.84","Celsius","-","-","-","-","353.84","Celsius","-","-","","-",""
"CN(C)C(=[NH2+])N(C)C.[O-]S(=O)(=O)C(F)(F)F","-","-","AUTO_2232","-","A140250","-","-","","-","-","353.87","Celsius","-","-","-","-","353.87","Celsius","-","-","","-",""
"CCOC(=O)C[N+]1(C)C=CC=C1.FC(F)(F)S(=O)(=O)[N-]S(=O)(=O)C(F)(F)F","-","-","AUTO_2233","-","A140250","-","-","-","-","-","354.0","Celsius","-","-","-","-","354.0","Celsius","-","-","","-",""
"F[P-](F)(F)(F)(F)F.CCCCN1C=C[N+](C)=N1","-","-","AUTO_2237","-","A140250","-","-","","-","-","355.0","Celsius","-","-","-","-","355.0","Celsius","-","-","","-",""
"FC(F)(F)S(=O)(=O)[N-]S(=O)(=O)C(F)(F)F.O=C(NCC1=CC=CC=C1)[C@H](CC2=CC=CC=C2)N3C=C[N+](CC4=CC=CC=C4)=C3","-","-","AUTO_2240","-","A139591","31540061","-","-","-","-","355.0","Celsius","-","-","-","-","355.0","Celsius","-","-","","-",""
"CC[N+]1=CSC=C1.FC(F)(F)S(=O)(=O)[N-]S(=O)(=O)C(F)(F)F","-","-","AUTO_2242","-","A140250","-","-","-","-","-","356.0","Celsius","-","-","-","-","356.0","Celsius","-","-","","-",""
"F[B-](F)(F)F.CC[N+](C)(C)C","-","-","AUTO_2243","-","A140250","-","-","","-","-","356.85","Celsius","-","-","-","-","356.85","Celsius","-","-","","-",""
"FC(F)(F)S(=O)(=O)[N-]S(=O)(=O)C(F)(F)F.CCCCCC[N+]1=CC=C(N(C)C)C(C)=C1","-","-","AUTO_2244","-","A140250","-","-","-","-","-","357.85","Celsius","-","-","-","-","357.85","Celsius","-","-","","-",""
"CCOCCOCC[N+]1=CN(C)C=C1.FC(F)(F)S(=O)(=O)[N-]S(=O)(=O)C(F)(F)F","-","-","AUTO_2246","-","A139508","15455143","-","-","-","-","358.0","Celsius","-","-","-","-","358.0","Celsius","-","-","","-",""
"F[P-](F)(F)(F)(F)F.CN1C=C[N+](CCCCCC(=O)C2=CC=C3OCCOCCOCCOCCOC3=C2)=C1","-","-","AUTO_2247","-","A140250","-","-","","-","-","358.0","Celsius","-","-","-","-","358.0","Celsius","-","-","","-",""
"CCCCCCN1C=C[N+](C)=C1C.FC(F)(F)S(=O)(=O)[N-]S(=O)(=O)C(F)(F)F","-","-","AUTO_2249","-","A140250","-","-","-","-","-","359.85","Celsius","-","-","-","-","359.85","Celsius","-","-","","-",""
"OS([O-])(=O)=O.CCN1C=C[N+](C)=C1","-","-","AUTO_2250","-","A139520","17047790","-","-","-","-","360.0","Celsius","-","-","-","-","360.0","Celsius","-","-","","-",""
"CCCCN1C=C[N+](=C1)C2=CC=CC=N2.FC(F)(F)S(=O)(=O)[N-]S(=O)(=O)C(F)(F)F","-","-","AUTO_2254","-","A140250","-","-","-","-","-","360.0","Celsius","-","-","-","-","360.0","Celsius","-","-","","-",""
"CC1=CC=C(C=C1)S([O-])(=O)=O.CC(C)CN1C=C[N+](CC(C)C)=C1","-","-","AUTO_2255","-","A140250","-","-","-","-","-","361.0","Celsius","-","-","-","-","361.0","Celsius","-","-","","-",""
"F[B-](F)(F)F.CCCCCCCC[N+](CC)(CC)CC","-","-","AUTO_2256","-","A140250","-","-","-","-","-","361.4","Celsius","-","-","-","-","361.4","Celsius","-","-","","-",""
"CCCCCC[N+]1=CN(C)C=C1.FC(F)(F)S(=O)(=O)[N-]S(=O)(=O)C(F)(F)F","-","-","AUTO_2258","-","A140250","-","-","-","-","-","362.0","Celsius","-","-","-","-","362.0","Celsius","-","-","","-",""
"[O-]S(=O)(=O)C(F)(F)F.FC(F)(F)C(F)(F)C(F)(F)C(F)(F)C(F)(F)C(F)(F)CC[N+]1=CC=CC=N1","-","-","AUTO_2259","-","A139590","29745392","-","-","-","-","362.0","Celsius","-","-","-","-","362.0","Celsius","-","-","","-",""
"FC(F)(F)S(=O)(=O)[N-]S(=O)(=O)C(F)(F)F.CCCCN1C=C[N+](CC2=CC=CC=N2)=C1","-","-","AUTO_2261","-","A140250","-","-","-","-","-","362.0","Celsius","-","-","-","-","362.0","Celsius","-","-","","-",""
"F[P-](F)(F)(F)(F)F.CCCCN1C=C[N+](CCCCCC(=O)C2=CC=C3OCCOCCOCCOCCOC3=C2)=C1","-","-","AUTO_2264","-","A140250","-","-","","-","-","364.0","Celsius","-","-","-","-","364.0","Celsius","-","-","","-",""
"FC(F)(F)S(=O)(=O)[N-]S(=O)(=O)C(F)(F)F.FC(F)(F)C(F)(F)C(F)(F)C(F)(F)C(F)(F)C(F)(F)CC[N+]1=CC=CC=N1","-","-","AUTO_2268","-","A140250","-","-","-","-","-","365.0","Celsius","-","-","-","-","365.0","Celsius","-","-","","-",""
"F[B-](F)(F)F.CCCCCC[N+](CC)(CC)CC","-","-","AUTO_2272","-","A140250","-","-","-","-","-","366.3","Celsius","-","-","-","-","366.3","Celsius","-","-","","-",""
"FC(F)(F)S(=O)(=O)[N-]S(=O)(=O)C(F)(F)F.CCCCCC[N+]1=CC=C(C=C1)N2CCC(C)CC2","-","-","AUTO_2273","-","A140250","-","-","-","-","-","366.85","Celsius","-","-","-","-","366.85","Celsius","-","-","","-",""
"CN1C=C[N+](C)=C1C2=NC=CC=C2.FC(F)(F)S(=O)(=O)[N-]S(=O)(=O)C(F)(F)F","-","-","AUTO_2274","-","A140250","-","-","-","-","-","367.0","Celsius","-","-","-","-","367.0","Celsius","-","-","","-",""
"FC(F)(F)S(=O)(=O)[N-]S(=O)(=O)C(F)(F)F.CC(CC(C)(C)C)C[P+](CCC(F)(F)C(F)(F)C(F)(F)C(F)(F)F)(CCC(F)(F)C(F)(F)C(F)(F)C(F)(F)F)CC1=CC=C(C=C)C=C1","-","-","AUTO_2275","-","A139523","17285176","-","-","-","-","367.0","Celsius","-","-","-","-","367.0","Celsius","-","-","","-",""
"CCN1C=C[N+](C)=C1C2=NC=CC=C2.FC(F)(F)S(=O)(=O)[N-]S(=O)(=O)C(F)(F)F","-","-","AUTO_2277","-","A139523","17285176","-","-","-","-","370.0","Celsius","-","-","-","-","370.0","Celsius","-","-","","-",""
"FC(F)(F)S(=O)(=O)[N-]S(=O)(=O)C(F)(F)F.FC(F)(F)C(F)(F)C(F)(F)C(F)(F)CC[P+](CCC(F)(F)C(F)(F)C(F)(F)C(F)(F)F)(CCC(F)(F)C(F)(F)C(F)(F)C(F)(F)F)CC1=CC=C(C=C)C=C1","-","-","AUTO_2280","-","A140250","-","-","-","-","-","371.0","Celsius","-","-","-","-","371.0","Celsius","-","-","","-",""
"F[B-](F)(F)F.CCCC[N+](CC)(CC)CC","-","-","AUTO_2282","-","A140250","-","-","-","-","-","371.3","Celsius","-","-","-","-","371.3","Celsius","-","-","","-",""
"CC[N+](C)(C)CCOCCOC.FC(F)(F)S(=O)(=O)[N-]S(=O)(=O)C(F)(F)F","-","-","AUTO_2283","-","A140250","-","-","-","-","-","371.84","Celsius","-","-","-","-","371.84","Celsius","-","-","","-",""
"FC(F)(F)S(=O)(=O)[N-]S(=O)(=O)C(F)(F)F.CCCN1C=C[N+](CCC)=C1C2=NC=CC=C2","-","-","AUTO_2286","-","A139523","17285176","-","-","-","-","372.0","Celsius","-","-","-","-","372.0","Celsius","-","-","","-",""
"FC(F)(F)S(=O)(=O)[N-]S(=O)(=O)C(F)(F)F.CC(CC(C)(C)C)C[P+](CCC(F)(F)C(F)(F)C(F)(F)C(F)(F)C(F)(F)C(F)(F)C(F)(F)C(F)(F)F)(CCC(F)(F)C(F)(F)C(F)(F)C(F)(F)C(F)(F)C(F)(F)C(F)(F)C(F)(F)F)CC1=CC=C(C=C)C=C1","-","-","AUTO_2287","-","A140250","-","-","-","-","-","374.0","Celsius","-","-","-","-","374.0","Celsius","-","-","","-",""
"FC(F)(F)S(=O)(=O)[N-]S(=O)(=O)C(F)(F)F.CCCCCCCC[P+](CCCCCCCC)(CCCCCCCC)CCC(F)(F)C(F)(F)C(F)(F)C(F)(F)F","-","-","AUTO_2288","-","A140250","-","-","-","-","-","374.0","Celsius","-","-","-","-","374.0","Celsius","-","-","","-",""
"[O-]S(=O)(=O)C(F)(F)C(F)(F)C(F)(F)C(F)(F)C(F)(F)C(F)(F)C(F)(F)C(F)(F)F.CCCCCC[P+](CCCCCC)(CCCCCC)CCCC(F)(F)C(F)(F)C(F)(F)C(F)(F)C(F)(F)C(F)(F)C(F)(F)C(F)(F)F","-","-","AUTO_2289","-","A139588","29251305","-","-","-","-","374.0","Celsius","-","-","-","-","374.0","Celsius","-","-","","-",""
"FC(F)(F)S(=O)(=O)[N-]S(=O)(=O)C(F)(F)F.CCCC[N+]1=CN(C=C1)[C@@H](CC2=CC=CC=C2)C(=O)NCC3=CC=CC=C3","-","-","AUTO_2290","-","A140250","-","-","-","-","-","375.0","Celsius","-","-","-","-","375.0","Celsius","-","-","","-",""
"CCCCCC[N+]1=CC=C(C=C1)N(C)C.FC(F)(F)S(=O)(=O)[N-]S(=O)(=O)C(F)(F)F","-","-","AUTO_2292","-","A140250","-","-","-","-","-","375.85","Celsius","-","-","-","-","375.85","Celsius","-","-","","-",""
"FC(F)(F)CC[N+]1=CC=CC=N1.FC(F)(F)S(=O)(=O)[N-]S(=O)(=O)C(F)(F)F","-","-","AUTO_2294","-","A140250","-","-","-","-","-","376.0","Celsius","-","-","-","-","376.0","Celsius","-","-","","-",""
"CCC[N+]1=CC=CC=N1.FC(F)(F)S(=O)(=O)[N-]S(=O)(=O)C(F)(F)F","-","-","AUTO_2297","-","A140250","-","-","-","-","-","377.0","Celsius","-","-","-","-","377.0","Celsius","-","-","","-",""
"C[N+](C)(C)C.F[B-](F)(F)F","-","-","AUTO_2298","-","A139568","25241963","-","","-","-","377.84","Celsius","-","-","-","-","377.84","Celsius","-","-","","-",""
"[NH2+]1C=CN=C1.FC(F)(F)S(=O)(=O)[N-]S(=O)(=O)C(F)(F)F","-","-","AUTO_2299","-","A140250","-","-","","-","-","379.0","Celsius","-","-","-","-","379.0","Celsius","-","-","","-",""
"[O-]S(=O)(=O)C(F)(F)F.CCCCN1C=[N+](CCC(F)(F)F)C=N1","-","-","AUTO_2302","-","A140250","-","-","-","-","-","379.0","Celsius","-","-","-","-","379.0","Celsius","-","-","","-",""
"FC(F)(F)S(=O)(=O)[N-]S(=O)(=O)C(F)(F)F.CCCCN1C=C[N+](CC)=C1C2=NC=CC=C2","-","-","AUTO_2303","-","A140250","-","-","-","-","-","379.0","Celsius","-","-","-","-","379.0","Celsius","-","-","","-",""
"FC(F)(F)S(=O)(=O)[N-]S(=O)(=O)C(F)(F)F.CCCCCCN1C=C[N+](CCCC)=C1C2=NC=CC=C2","-","-","AUTO_2304","-","A139523","17285176","-","-","-","-","379.0","Celsius","-","-","-","-","379.0","Celsius","-","-","","-",""
"[O-]S(=O)(=O)C(F)(F)F.CCCC[P+](CCCC)(CCCC)CCC(F)(F)C(F)(F)C(F)(F)C(F)(F)F","-","-","AUTO_2305","-","A139523","17285176","-","-","-","-","379.0","Celsius","-","-","-","-","379.0","Celsius","-","-","","-",""
"COC[P+](C)(C)C.FC(F)(F)S(=O)(=O)[N-]S(=O)(=O)C(F)(F)F","-","-","AUTO_2306","-","A140250","-","-","-","-","-","379.0","Celsius","-","-","-","-","379.0","Celsius","-","-","","-",""
"FC(F)(F)S(=O)(=O)[N-]S(=O)(=O)C(F)(F)F.CCCCNC(=O)[C@H](CC1=CC=CC=C1)N2C=C[N+](C)=C2","-","-","AUTO_2310","-","A140250","-","-","-","-","-","380.0","Celsius","-","-","-","-","380.0","Celsius","-","-","","-",""
"FC(F)(F)S(=O)(=O)[N-]S(=O)(=O)C(F)(F)F.CCCCNC(=O)[C@H](CC1=CC=CC=C1)N2C=C[N+](CCCC)=C2","-","-","AUTO_2311","-","A140250","-","-","-","-","-","380.0","Celsius","-","-","-","-","380.0","Celsius","-","-","","-",""
"FC(F)(F)S(=O)(=O)[N-]S(=O)(=O)C(F)(F)F.CCCCNC(=O)[C@H](CC1=CC=CC=C1)N2C=C[N+](CC3=CC=CC=C3)=C2","-","-","AUTO_2312","-","A140250","-","-","-","-","-","380.0","Celsius","-","-","-","-","380.0","Celsius","-","-","","-",""
"CN1C=C[N+](CC2=CC=CC=C2)=C1.FC(F)(F)S(=O)(=O)[N-]S(=O)(=O)C(F)(F)F","-","-","AUTO_2316","-","A140250","-","-","-","-","-","381.0","Celsius","-","-","-","-","381.0","Celsius","-","-","","-",""
"FC(F)(F)S(=O)(=O)[N-]S(=O)(=O)C(F)(F)F.CCC[N+]1=C(N(CCCC(F)(F)F)C=C1)C2=NC=CC=C2","-","-","AUTO_2321","-","A140250","-","-","-","-","-","382.0","Celsius","-","-","-","-","382.0","Celsius","-","-","","-",""
"[O-]S(=O)(=O)C(F)(F)F.CCCC[P+](CCCC)(CCCC)CCC(F)(F)C(F)(F)C(F)(F)C(F)(F)C(F)(F)C(F)(F)C(F)(F)C(F)(F)C(F)(F)C(F)(F)F","-","-","AUTO_2322","-","A139523","17285176","-","-","-","-","382.0","Celsius","-","-","-","-","382.0","Celsius","-","-","","-",""
"FC(F)(F)S(=O)(=O)[N-]S(=O)(=O)C(F)(F)F.CCCC[N+]1=C(N(CCCC(F)(F)F)C=C1)C2=NC=CC=C2","-","-","AUTO_2325","-","A139523","17285176","-","-","-","-","383.0","Celsius","-","-","-","-","383.0","Celsius","-","-","","-",""
"CC1=CC=[N+](CC(F)(F)F)C=C1.FC(F)(F)S(=O)(=O)[N-]S(=O)(=O)C(F)(F)F","-","-","AUTO_2329","-","A139523","17285176","-","-","-","-","384.0","Celsius","-","-","-","-","384.0","Celsius","-","-","","-",""
"CCCN1C=C[N+](C)=C1C2=NC=CC=C2.FC(F)(F)S(=O)(=O)[N-]S(=O)(=O)C(F)(F)F","-","-","AUTO_2330","-","A139506","14518901","-","-","-","-","384.0","Celsius","-","-","-","-","384.0","Celsius","-","-","","-",""
"FC(F)(F)S(=O)(=O)[N-]S(=O)(=O)C(F)(F)F.CN1C=C[N+](CCNC(=O)[C@@H]2CCCN2C(=O)[C@@H]3CCCN3C(=O)OC(C)(C)C)=C1","-","-","AUTO_2334","-","A140250","-","-","-","-","-","385.0","Celsius","-","-","-","-","385.0","Celsius","-","-","","-",""
"COCC[N+]1=CN(C)C=C1.FC(F)(F)S(=O)(=O)[N-]S(=O)(=O)C(F)(F)F","-","-","AUTO_2336","-","A139508","15455143","-","-","-","-","386.0","Celsius","-","-","-","-","386.0","Celsius","-","-","","-",""
"CCCC[P+]1(C)CCCCC1.FC(F)(F)S(=O)(=O)[N-]S(=O)(=O)C(F)(F)F","-","-","AUTO_2340","-","A139564","24605146","-","-","-","-","386.0","Celsius","-","-","-","-","386.0","Celsius","-","-","","-",""
"FC(F)(F)S(=O)(=O)[N-]S(=O)(=O)C(F)(F)F.CCCC[P+]1(CCCCC1)C2=CC=CC=C2","-","-","AUTO_2344","-","A139564","24605146","-","-","-","-","387.0","Celsius","-","-","-","-","387.0","Celsius","-","-","","-",""
"FC(F)(F)S(=O)(=O)[N-]S(=O)(=O)C(F)(F)F.CCCCN1C=C[N+](CCCC)=C1C2=NC=CC=C2","-","-","AUTO_2349","-","A139523","17285176","-","-","-","-","388.0","Celsius","-","-","-","-","388.0","Celsius","-","-","","-",""
"C=CCN1C=C[N+](CC=C)=C1.FC(F)(F)S(=O)(=O)[N-]S(=O)(=O)C(F)(F)F","-","-","AUTO_2350","-","A140250","-","-","-","-","-","389.0","Celsius","-","-","-","-","389.0","Celsius","-","-","","-",""
"FC(F)(F)S(=O)(=O)[N-]S(=O)(=O)C(F)(F)F.FC(F)(F)C(OCCC[P+](CCCOC(C(F)(F)F)(C(F)(F)F)C(F)(F)F)(CCCOC(C(F)(F)F)(C(F)(F)F)C(F)(F)F)CC1=CC=C(C=C)C=C1)(C(F)(F)F)C(F)(F)F","-","-","AUTO_2351","-","A140250","-","-","-","-","-","389.0","Celsius","-","-","-","-","389.0","Celsius","-","-","","-",""
"FC(F)(F)S(=O)(=O)[N-]S(=O)(=O)C(F)(F)F.CN1C=C[N+](CCNC(=O)[C@H](CC2=CC=CC=C2)NC(=O)[C@@H]3CCCN3C(=O)OC(C)(C)C)=C1","-","-","AUTO_2357","-","A140250","-","-","-","-","-","390.0","Celsius","-","-","-","-","390.0","Celsius","-","-","","-",""
"CCCCCCC[N+](C)(C)CC.FC(F)(F)S(=O)(=O)[N-]S(=O)(=O)C(F)(F)F","-","-","AUTO_2358","-","A140250","-","-","-","-","-","390.84","Celsius","-","-","-","-","390.84","Celsius","-","-","","-",""
"[O-]S(=O)(=O)C(F)(F)F.CCCCN1C=[N+](CCC(F)(F)C(F)(F)C(F)(F)C(F)(F)F)C=N1","-","-","AUTO_2360","-","A140250","-","-","-","-","-","391.0","Celsius","-","-","-","-","391.0","Celsius","-","-","","-",""
"CC[N+]1=CN(CCCNS(=O)(=O)C2=CC=CC3=C(C=CC=C23)N(C)C)C=C1.[O-]S(=O)(=O)C(F)(F)C(F)(F)C(F)(F)C(F)(F)C(F)(F)C(F)(F)C(F)(F)C(F)(F)F","-","-","AUTO_2365","-","A140250","-","-","-","-","-","392.0","Celsius","-","-","-","-","392.0","Celsius","-","-","","-",""
"[O-]S(=O)(=O)C(F)(F)F.CCCCCCCC[P+](CCCCCCCC)(CCCCCCCC)CCC(F)(F)C(F)(F)C(F)(F)C(F)(F)C(F)(F)C(F)(F)C(F)(F)C(F)(F)C(F)(F)C(F)(F)F","-","-","AUTO_2371","-","A139527","18060150","-","-","-","-","394.0","Celsius","-","-","-","-","394.0","Celsius","-","-","","-",""
"CCC[N+]1(C)C[C@H]2CC[C@H](CC2)C1.FC(F)(F)S(=O)(=O)[N-]S(=O)(=O)C(F)(F)F","-","-","AUTO_2373","-","A140250","-","-","-","-","-","394.0","Celsius","-","-","-","-","394.0","Celsius","-","-","","-",""
"FC(F)(F)S(=O)(=O)[N-]S(=O)(=O)C(F)(F)F.CCCCCCCC[P+](CCCCC)(CCCCCCCC)CCCCCCCC","-","-","AUTO_2377","-","A140250","-","-","-","-","-","395.0","Celsius","-","-","-","-","395.0","Celsius","-","-","","-",""
"CN1C=C[N+](C)=C1.FC(F)(F)C(F)(F)C(F)(F)C(F)(F)S(=O)(=O)[N-]S(=O)(=O)C(F)(F)C(F)(F)C(F)(F)C(F)(F)F","-","-","AUTO_2386","-","A140250","-","-","-","-","-","397.0","Celsius","-","-","-","-","397.0","Celsius","-","-","","-",""
"FC(F)(F)S(=O)(=O)[N-]S(=O)(=O)C(F)(F)F.CCCCN1C=C[N+](CCC)=C1C2=NC=CC=C2","-","-","AUTO_2388","-","A139588","29251305","-","-","-","-","397.0","Celsius","-","-","-","-","397.0","Celsius","-","-","","-",""
"FC(F)(F)S(=O)(=O)[N-]S(=O)(=O)C(F)(F)F.CCCCC(CC)CN1C=C[N+](CC(CC)CCCC)=C1","-","-","AUTO_2390","-","A139523","17285176","-","-","-","-","397.0","Celsius","-","-","-","-","397.0","Celsius","-","-","","-",""
"FC(F)(F)S(=O)(=O)[N-]S(=O)(=O)C(F)(F)F.CCCCCC[P+](CCCCCC)(CCCCCC)CCCC(F)(F)C(F)(F)C(F)(F)C(F)(F)C(F)(F)C(F)(F)C(F)(F)C(F)(F)F","-","-","AUTO_2391","-","A139506","14518901","-","-","-","-","397.0","Celsius","-","-","-","-","397.0","Celsius","-","-","","-",""
"CN1C=C[N+](CCF)=C1.FC(F)(F)S(=O)(=O)[N-]S(=O)(=O)C(F)(F)F","-","-","AUTO_2394","-","A140250","-","-","-","-","-","398.0","Celsius","-","-","-","-","398.0","Celsius","-","-","","-",""
"FC(F)(F)S(=O)(=O)[N-]S(=O)(=O)C(F)(F)F.CCCCN1C=C[N+](C)=C1C2=NC=CC=C2","-","-","AUTO_2395","-","A139523","17285176","-","-","-","-","398.0","Celsius","-","-","-","-","398.0","Celsius","-","-","","-",""
"FC(F)(F)S(=O)(=O)[N-]S(=O)(=O)C(F)(F)F.C[N+]1=CN(C=C1)[C@@H](CC2=CC=CC=C2)C(=O)NCC3=CC=CC=C3","-","-","AUTO_2405","-","A140250","-","-","-","-","-","400.0","Celsius","-","-","-","-","400.0","Celsius","-","-","","-",""
"FC(F)(F)S(=O)(=O)[N-]S(=O)(=O)C(F)(F)F.CCCCCCCCC[N+]1=CN(C=C1)[C@@H](CC2=CC=CC=C2)C(=O)NCC3=CC=CC=C3","-","-","AUTO_2406","-","A140250","-","-","-","-","-","400.0","Celsius","-","-","-","-","400.0","Celsius","-","-","","-",""
"F[P-](F)(F)(F)(F)F.CC[N+]1=CN(CCCNS(=O)(=O)C2=CC=CC3=C(C=CC=C23)N(C)C)C=C1","-","-","AUTO_2410","-","A140250","-","-","","-","-","401.0","Celsius","-","-","-","-","401.0","Celsius","-","-","","-",""
"CN(C)C1=CC=[N+](C)C=C1.FC(F)(F)C(F)(F)C(F)(F)C(F)(F)S(=O)(=O)[N-]S(=O)(=O)C(F)(F)C(F)(F)C(F)(F)C(F)(F)F","-","-","AUTO_2415","-","A139506","14518901","-","-","-","-","402.0","Celsius","-","-","-","-","402.0","Celsius","-","-","","-",""
"FC(F)(F)S(=O)(=O)[N-]S(=O)(=O)C(F)(F)F.CCCCCCCCN1C=C[N+](CC2=CC=CC3=CC=CC=C23)=C1","-","-","AUTO_2423","-","A140250","-","-","-","-","-","405.0","Celsius","-","-","-","-","405.0","Celsius","-","-","","-",""
"FC(F)(F)S(=O)(=O)[N-]S(=O)(=O)C(F)(F)F.CCCCCCN1C=C[N+](CCCCCC)=C1","-","-","AUTO_2425","-","A140250","-","-","-","-","-","406.0","Celsius","-","-","-","-","406.0","Celsius","-","-","","-",""
"F[B-](F)(F)F.CC[N+]1=CN(CCCNS(=O)(=O)C2=CC=CC3=C(C=CC=C23)N(C)C)C=C1","-","-","AUTO_2427","-","A140250","-","-","","-","-","406.0","Celsius","-","-","-","-","406.0","Celsius","-","-","","-",""
"CCC[N+](C)(CC)CC.[O-]S(NS(=O)(=O)C(F)(F)F)(NS(=O)(=O)C(F)(F)F)C(F)(F)F","-","-","AUTO_2433","-","A139577","26840215","-","-","-","-","408.0","Celsius","-","-","-","-","408.0","Celsius","-","-","","-",""
"[O-]S(=O)(=O)C(F)(F)F.CCCCN1C=C[N+](C)=C1","-","-","AUTO_2434","-","A140250","-","-","-","-","-","409.0","Celsius","-","-","-","-","409.0","Celsius","-","-","","-",""
"FC(F)(F)S(=O)(=O)[N-]S(=O)(=O)C(F)(F)F.CCCCN1C=C[N+](CC2=CC=CC3=CC=CC=C23)=C1","-","-","AUTO_2443","-","A140250","-","-","-","-","-","413.0","Celsius","-","-","-","-","413.0","Celsius","-","-","","-",""