"SMILES","CASRN","EXTERNALID","N","NAME","ARTICLEID","PUBMEDID","PAGE","TABLE","Melting Point","UNIT {Melting Point}","Decomposition","UNIT {Decomposition}","Glass-transition temperature (Tg)","UNIT {Glass-transition temperature (Tg)}","Melting Point {measured, converted}","UNIT {Melting Point}","Decomposition {measured, converted}","UNIT {Decomposition}","Glass-transition temperature (Tg) {measured, converted}","UNIT {Glass-transition temperature (Tg)}","weight loss","UNIT {weight loss}","Solvent"
"CC1=CC2=CC=CC=[N+]2C=C1C.C(F)(F)(F)S(=O)(=O)[N-]S(=O)(=O)C(F)(F)F","-","-","AUTO_1669","C1184_A0048","A132065","-","-","-","61.0","Celsius","-","-","-","-","61.0","Celsius","-","-","-","-","","-",""
"CC1=CC2=CC=CC=[N+]2C=C1C.F[B-](F)(F)F","-","-","AUTO_1670","C1184_A0020","A132065","-","-","-","186.0","Celsius","-","-","-","-","186.0","Celsius","-","-","-","-","","-",""
"CC1=CC2=CC=CC=[N+]2C=C1C.C(#N)[N-]C#N","-","-","AUTO_1671","C1184_A0056","A132065","-","-","-","138.0","Celsius","-","-","-","-","138.0","Celsius","-","-","-","-","","-",""
"CCC1=CC2=CC=CC=[N+]2C=C1CC.[Br-]","-","-","AUTO_1672","C1185_A0004","A132065","-","-","-","222.0","Celsius","-","-","-","-","222.0","Celsius","-","-","-","-","","-",""
"CCC1=CC2=CC=CC=[N+]2C=C1CC.C(F)(F)(F)S(=O)(=O)[N-]S(=O)(=O)C(F)(F)F","-","-","AUTO_1673","C1185_A0048","A132065","-","-","-","50.0","Celsius","-","-","-","-","50.0","Celsius","-","-","-","-","","-",""
"CCC1=CC2=CC=CC=[N+]2C=C1CC.F[B-](F)(F)F","-","-","AUTO_1674","C1185_A0020","A132065","-","-","-","116.0","Celsius","-","-","-","-","116.0","Celsius","-","-","-","-","","-",""
"CCC1=CC2=CC=CC=[N+]2C=C1CC.C(#N)[N-]C#N","-","-","AUTO_1675","C1185_A0056","A132065","-","-","-","68.0","Celsius","-","-","-","-","68.0","Celsius","-","-","-","-","","-",""
"COCC[N+](CC)(CC)C.F[B-](F)(F)F","-","-","AUTO_1676","C0406_A0020","A132065","-","-","-","8.0","Celsius","-","-","-","-","8.0","Celsius","-","-","-","-","","-",""
"COCC[N+](C)(C)CCOC.F[B-](F)(F)F","-","-","AUTO_1677","C1193_A0020","A132065","-","-","-","36.0","Celsius","-","-","-","-","36.0","Celsius","-","-","-","-","","-",""
"CCOCC[N+](C)(C)CCOC.F[B-](F)(F)F","-","-","AUTO_1678","C1194_A0020","A132065","-","-","-","6.0","Celsius","-","-","-","-","6.0","Celsius","-","-","-","-","","-",""
"COCC[N+](CC)(CC)C.C(C)(=O)[O-]","-","-","AUTO_1679","C0406_A0087","A132065","-","-","-","36.0","Celsius","-","-","-","-","36.0","Celsius","-","-","-","-","","-",""
"COCC[N+](C)(C)CCOC.C(C)(=O)[O-]","-","-","AUTO_1680","C1193_A0087","A132065","-","-","-","40.0","Celsius","-","-","-","-","40.0","Celsius","-","-","-","-","","-",""
"CCOCC[N+](C)(C)CCOC.C(C)(=O)[O-]","-","-","AUTO_1681","C1194_A0087","A132065","-","-","-","31.0","Celsius","-","-","-","-","31.0","Celsius","-","-","-","-","","-",""
"CCOCC[N+](C)(C)CCOCC.C(C)(=O)[O-]","-","-","AUTO_1682","C1195_A0087","A132065","-","-","-","34.0","Celsius","-","-","-","-","34.0","Celsius","-","-","-","-","","-",""
"C1(CCCCC1)[N+](CCCCCCCC)(C)C.[Br-]","-","-","AUTO_1683","C1190_A0004","A132065","-","-","-","181.0","Celsius","-","-","-","-","181.0","Celsius","-","-","-","-","","-",""
"C1(CCCCC1)CCCCCC[NH+](C)C.C(=O)[O-]","-","-","AUTO_1684","C1191_A0024","A132065","-","-","-","23.0","Celsius","-","-","-","-","23.0","Celsius","-","-","-","-","","-",""
"C1(CCCCC1)[N+](CCCCCCCC)(C)C.C(=O)[O-]","-","-","AUTO_1685","C1190_A0024","A132065","-","-","-","56.0","Celsius","-","-","-","-","56.0","Celsius","-","-","-","-","","-",""
"C(CCC)[N+](C)(C)C1CCCCC1.C(C)(=O)[O-]","-","-","AUTO_1686","C1192_A0087","A132065","-","-","-","50.0","Celsius","-","-","-","-","50.0","Celsius","-","-","-","-","","-",""
"C(C)C(C[N+](C)(C)CC(CCCC)CC)CCCC.[Cl-]","-","-","AUTO_1687","C1168_A0033","A132065","-","-","-","84.0","Celsius","-","-","-","-","84.0","Celsius","-","-","-","-","","-",""
"C(C)C(C[N+](C)(C)CC(CCCC)CC)CCCC.[Br-]","-","-","AUTO_1688","C1168_A0004","A132065","-","-","-","90.0","Celsius","-","-","-","-","90.0","Celsius","-","-","-","-","","-",""
"C(C)C(C[N+](C)(C)CC(CCCC)CC)CCCC.[I-]","-","-","AUTO_1689","C1168_A0069","A132065","-","-","-","73.0","Celsius","-","-","-","-","73.0","Celsius","-","-","-","-","","-",""
"C(C)C(C[N+](C)(C)CC(CCCC)CC)CCCC.[N+](=O)([O-])[O-]","-","-","AUTO_1690","C1168_A0090","A132065","-","-","-","80.0","Celsius","-","-","-","-","80.0","Celsius","-","-","-","-","","-",""
"C(C)C(C[N+](C)(C)CC(CCCC)CC)CCCC.S(=O)(=O)([O-])C1=CC=C(C)C=C1","-","-","AUTO_1691","C1168_A0030","A132065","-","-","-","78.0","Celsius","-","-","-","-","78.0","Celsius","-","-","-","-","","-",""
"C(C)C(C[N+](C)(C)CC(CCCC)CC)CCCC.C(C1=CC=NC=C1)(=O)[O-]","-","-","AUTO_1692","C1168_A0094","A132065","-","-","-","266.0","Celsius","-","-","-","-","266.0","Celsius","-","-","-","-","","-",""
"C(C)C(C[N+](C)(C)CC(CCCC)CC)CCCC.C(C1=CN=CC=C1)(=O)[O-]","-","-","AUTO_1693","C1168_A0095","A132065","-","-","-","224.0","Celsius","-","-","-","-","224.0","Celsius","-","-","-","-","","-",""
"C[N+](C)(C)CC(O)=O.C(F)(F)(F)S(=O)(=O)[N-]S(=O)(=O)C(F)(F)F","-","-","AUTO_1694","C1186_A0048","A132065","-","-","-","54.0","Celsius","-","-","-","-","54.0","Celsius","-","-","-","-","","-",""
"C[N+]1=CN(CCC(F)(F)C(F)(F)C(F)(F)C(F)(F)C(F)(F)C(F)(F)F)C=C1.F[P-](F)(F)(F)(F)F","-","-","AUTO_1695","C1188_A0011","A132065","-","-","-","66.0","Celsius","-","-","-","-","66.0","Celsius","-","-","-","-","","-",""
"CCCC[N+]1=CN(CCC(F)(F)C(F)(F)C(F)(F)C(F)(F)C(F)(F)C(F)(F)F)C=C1.F[P-](F)(F)(F)(F)F","-","-","AUTO_1696","C1189_A0011","A132065","-","-","-","89.0","Celsius","-","-","-","-","89.0","Celsius","-","-","-","-","","-",""
"CCCC[N+](CCCC)(CCCC)CCCC.FC(C(C(C(C(C(C(C(F)(F)F)(F)F)(F)F)(F)F)(F)F)(F)F)(F)F)(S(=O)(=O)[O-])F","-","-","AUTO_1697","C0297_A0096","A132065","-","-","-","-18.0","Celsius","-","-","-","-","-18.0","Celsius","-","-","-","-","","-",""
"CCCC[N+](CCCC)(CCCC)CCCC.FC(C(C(C(F)(F)F)(F)F)(F)F)(S(=O)(=O)[O-])F","-","-","AUTO_1698","C0297_A0079","A132065","-","-","-","54.0","Celsius","-","-","-","-","54.0","Celsius","-","-","-","-","","-",""
"C(C)[N+]1=CC(=CC=C1)C.FC(C(C(C(C(C(C(C(F)(F)F)(F)F)(F)F)(F)F)(F)F)(F)F)(F)F)(S(=O)(=O)[O-])F","-","-","AUTO_1699","C1187_A0096","A132065","-","-","-","5.0","Celsius","-","-","-","-","5.0","Celsius","-","-","-","-","","-",""
"CCCCCC[N+]=1C=CN(C1)C.FC(C(C(C(C(C(C(C(F)(F)F)(F)F)(F)F)(F)F)(F)F)(F)F)(F)F)(S(=O)(=O)[O-])F","-","-","AUTO_1700","C0190_A0096","A132065","-","-","-","24.0","Celsius","-","-","-","-","24.0","Celsius","-","-","-","-","","-",""
"CCCCCCCC[N+]=1C=CN(C1)C.FC(C(C(C(C(C(C(C(F)(F)F)(F)F)(F)F)(F)F)(F)F)(F)F)(F)F)(S(=O)(=O)[O-])F","-","-","AUTO_1701","C0290_A0096","A132065","-","-","-","35.0","Celsius","-","-","-","-","35.0","Celsius","-","-","-","-","","-",""
"OCC[N+]1(CCCC1)C.[Cl-]","-","-","AUTO_1703","C1205_A0033","A132065","-","-","-","33.0","Celsius","-","-","-","-","33.0","Celsius","-","-","-","-","","-",""
"OCCC[N+]1(CCCC1)C.[Cl-]","-","-","AUTO_1704","C1206_A0033","A132065","-","-","-","41.0","Celsius","-","-","-","-","41.0","Celsius","-","-","-","-","","-",""
"OCC[N+]1(CCCCC1)C.[Cl-]","-","-","AUTO_1705","C1207_A0033","A132065","-","-","-","40.0","Celsius","-","-","-","-","40.0","Celsius","-","-","-","-","","-",""
"COCC[N+]1(C)CCCCC1.[Cl-]","-","-","AUTO_1706","C0728_A0033","A132065","-","-","-","58.0","Celsius","-","-","-","-","58.0","Celsius","-","-","-","-","","-",""
"C(C)[N+]1(CCCCC1)CCO.[Cl-]","-","-","AUTO_1707","C1208_A0033","A132065","-","-","-","88.0","Celsius","-","-","-","-","88.0","Celsius","-","-","-","-","","-",""
"OCC[N+]1(CCCC1)C.C(F)(F)(F)S(=O)(=O)[N-]S(=O)(=O)C(F)(F)F","-","-","AUTO_1708","C1205_A0048","A132065","-","-","-","-25.0","Celsius","-","-","-","-","-25.0","Celsius","-","-","-","-","","-",""
"OCCC[N+]1(CCCC1)C.C(F)(F)(F)S(=O)(=O)[N-]S(=O)(=O)C(F)(F)F","-","-","AUTO_1709","C1206_A0048","A132065","-","-","-","12.0","Celsius","-","-","-","-","12.0","Celsius","-","-","-","-","","-",""
"OCC[N+]1(CCCCC1)C.C(F)(F)(F)S(=O)(=O)[N-]S(=O)(=O)C(F)(F)F","-","-","AUTO_1710","C1207_A0048","A132065","-","-","-","-23.0","Celsius","-","-","-","-","-23.0","Celsius","-","-","-","-","","-",""
"C(C)[N+]1(CCCCC1)CCO.C(F)(F)(F)S(=O)(=O)[N-]S(=O)(=O)C(F)(F)F","-","-","AUTO_1711","C1208_A0048","A132065","-","-","-","-20.0","Celsius","-","-","-","-","-20.0","Celsius","-","-","-","-","","-",""
"C(CCC)[P+](CCCCCCCCCCCCCCCCCC)(CCCC)CCCC.N1N=N[C-]=C1","-","-","AUTO_1712","C1209_A0098","A132065","-","-","-","24.0","Celsius","-","-","-","-","24.0","Celsius","-","-","-","-","","-",""
"C(CCC)[P+](COC)(CCCC)CCCC.N1N=N[C-]=C1","-","-","AUTO_1713","C1216_A0098","A132065","-","-","-","7.0","Celsius","-","-","-","-","7.0","Celsius","-","-","-","-","","-",""
"CCCC[P+](CC)(CC)CC.CC=1[N-]C(=CN1)[N+](=O)[O-]","-","-","AUTO_1714","C0519_A0100","A132065","-","-","-","17.0","Celsius","-","-","-","-","17.0","Celsius","-","-","-","-","","-",""
"CCCC[P+](CC)(CC)CC.[N+](=O)([O-])C=1C=N[N-]C1","-","-","AUTO_1715","C0519_A0099","A132065","-","-","-","44.0","Celsius","-","-","-","-","44.0","Celsius","-","-","-","-","","-",""
"C(CCCCCC)[P+](CC)(CC)CC.[N+](=O)([O-])C=1C=N[N-]C1","-","-","AUTO_1716","C1211_A0099","A132065","-","-","-","16.0","Celsius","-","-","-","-","16.0","Celsius","-","-","-","-","","-",""
"C(CCCCCCC)[P+](CC)(CC)CC.[N+](=O)([O-])C=1C=N[N-]C1","-","-","AUTO_1717","C1210_A0099","A132065","-","-","-","5.0","Celsius","-","-","-","-","5.0","Celsius","-","-","-","-","","-",""
"C(CCCCCCCC)[P+](CC)(CC)CC.[N+](=O)([O-])C=1C=N[N-]C1","-","-","AUTO_1718","C1212_A0099","A132065","-","-","-","16.0","Celsius","-","-","-","-","16.0","Celsius","-","-","-","-","","-",""
"C(C)[P+](CCCCCCCCCC)(CC)CC.[N+](=O)([O-])C=1C=N[N-]C1","-","-","AUTO_1719","C1213_A0099","A132065","-","-","-","11.0","Celsius","-","-","-","-","11.0","Celsius","-","-","-","-","","-",""
"C(CCCCCCC)[P+](CC)(CC)CC.[N+](=O)([O-])C=1N=C[N-]C1","-","-","AUTO_1720","C1210_A0102","A132065","-","-","-","-28.0","Celsius","-","-","-","-","-28.0","Celsius","-","-","-","-","","-",""
"CCCCCC[N+](CC)(CC)CC.N1N=N[C-]=C1","-","-","AUTO_1721","C0352_A0098","A132065","-","-","-","60.0","Celsius","-","-","-","-","60.0","Celsius","-","-","-","-","","-",""
"C(C)[P+](COCCOC)(CC)CC.N1N=N[C-]=C1","-","-","AUTO_1722","C1215_A0098","A132065","-","-","-","29.0","Celsius","-","-","-","-","29.0","Celsius","-","-","-","-","","-",""
"C(C)[P+](COCCOC)(CC)CC.[N+](=O)([O-])C=1C=N[N-]C1","-","-","AUTO_1723","C1215_A0099","A132065","-","-","-","-15.0","Celsius","-","-","-","-","-15.0","Celsius","-","-","-","-","","-",""
"C1(CCCC1)[P+](CC)(CC)CC.[N+](=O)([O-])C=1C=N[N-]C1","-","-","AUTO_1724","C1219_A0099","A132065","-","-","-","51.0","Celsius","-","-","-","-","51.0","Celsius","-","-","-","-","","-",""
"CC[P+](CC)(CC)CCC=C.[N+](=O)([O-])C=1C=N[N-]C1","-","-","AUTO_1725","C1220_A0099","A132065","-","-","-","39.0","Celsius","-","-","-","-","39.0","Celsius","-","-","-","-","","-",""
"CC[P+](CC)(CC)CCC=C.C(F)(F)(F)S(=O)(=O)[N-]S(=O)(=O)C(F)(F)F","-","-","AUTO_1726","C1220_A0048","A132065","-","-","-","49.0","Celsius","-","-","-","-","49.0","Celsius","-","-","-","-","","-",""
"C(CCC)[S+]1CCCCC1.C(F)(F)(F)S(=O)(=O)[N-]S(=O)(=O)C(F)(F)F","-","-","AUTO_1727","C1214_A0048","A132065","-","-","-","-10.0","Celsius","-","-","-","-","-10.0","Celsius","-","-","-","-","","-",""
"CCCCCC[N+]=1C=CN(C1)C.[N+](=O)([O-])C=1C=N[N-]C1","-","-","AUTO_1728","C0190_A0099","A132065","-","-","-","33.0","Celsius","-","-","-","-","33.0","Celsius","-","-","-","-","","-",""
"CCCCCC[N+]=1C=CN(C1)C.N1N=[C-]N=C1","-","-","AUTO_1729","C0190_A0101","A132065","-","-","-","34.0","Celsius","-","-","-","-","34.0","Celsius","-","-","-","-","","-",""
"C1(CCCC1)[N+]2=C(N(C=C2)C)C.[N+](=O)([O-])C=1C=N[N-]C1","-","-","AUTO_1730","C1218_A0099","A132065","-","-","-","92.0","Celsius","-","-","-","-","92.0","Celsius","-","-","-","-","","-",""
"COCCOC[N+]1=C(N(C=C1)C)C.N1N=N[C-]=C1","-","-","AUTO_1731","C1217_A0098","A132065","-","-","-","58.0","Celsius","-","-","-","-","58.0","Celsius","-","-","-","-","","-",""
"CC[N+]1=C2CCCCCN2CCC1.[Br-]","-","-","AUTO_1732","C1223_A0004","A132065","-","-","-","105.0","Celsius","-","-","-","-","105.0","Celsius","-","-","-","-","","-",""
"CCCC[N+]1=C2CCCCCN2CCC1.[Br-]","-","-","AUTO_1733","C1224_A0004","A132065","-","-","-","82.0","Celsius","-","-","-","-","82.0","Celsius","-","-","-","-","","-",""
"CCCCCC[N+]1=C2CCCCCN2CCC1.[Cl-]","-","-","AUTO_1734","C1221_A0033","A132065","-","-","-","44.0","Celsius","-","-","-","-","44.0","Celsius","-","-","-","-","","-",""
"CCCCCCCC[N+]1=C2CCCCCN2CCC1.[Cl-]","-","-","AUTO_1735","C1222_A0033","A132065","-","-","-","30.0","Celsius","-","-","-","-","30.0","Celsius","-","-","-","-","","-",""
"CC[N+]1=C2CCCCCN2CCC1.[S-]C#N","-","-","AUTO_1736","C1223_A0015","A132065","-","-","-","40.0","Celsius","-","-","-","-","40.0","Celsius","-","-","-","-","","-",""
"CCCC[N+]1=C2CCCCCN2CCC1.[S-]C#N","-","-","AUTO_1737","C1224_A0015","A132065","-","-","-","50.0","Celsius","-","-","-","-","50.0","Celsius","-","-","-","-","","-",""
"CCCCCCCCCCCCCC[N+]1=C2CCCCCN2CCC1.[S-]C#N","-","-","AUTO_1738","C1225_A0015","A132065","-","-","-","48.0","Celsius","-","-","-","-","48.0","Celsius","-","-","-","-","","-",""
"CC[N+](CC)(CC)CC.F[B-](F)(F)F","-","-","AUTO_1739","C0687_A0020","A132065","-","-","-","71.0","Celsius","-","-","-","-","71.0","Celsius","-","-","-","-","","-",""
"CC[N+](CC)(CC)CC.F[P-](F)(F)(F)(F)F","-","-","AUTO_1740","C0687_A0011","A132065","-","-","-","77.0","Celsius","-","-","-","-","77.0","Celsius","-","-","-","-","","-",""
"CCCC[N+](CC)(CC)CC.F[B-](F)(F)F","-","-","AUTO_1741","C0756_A0020","A132065","-","-","-","162.0","Celsius","-","-","-","-","162.0","Celsius","-","-","-","-","","-",""
"CCCC[N+](CC)(CC)CC.F[P-](F)(F)(F)(F)F","-","-","AUTO_1742","C0756_A0011","A132065","-","-","-","179.0","Celsius","-","-","-","-","179.0","Celsius","-","-","-","-","","-",""
"CCCCCC[N+](CC)(CC)CC.F[B-](F)(F)F","-","-","AUTO_1743","C0352_A0020","A132065","-","-","-","88.0","Celsius","-","-","-","-","88.0","Celsius","-","-","-","-","","-",""
"CCCCCC[N+](CC)(CC)CC.F[P-](F)(F)(F)(F)F","-","-","AUTO_1744","C0352_A0011","A132065","-","-","-","162.0","Celsius","-","-","-","-","162.0","Celsius","-","-","-","-","","-",""
"C(C)[N+](CC)(CC)CCCCCCCC.F[B-](F)(F)F","-","-","AUTO_1745","C1226_A0020","A132065","-","-","-","101.0","Celsius","-","-","-","-","101.0","Celsius","-","-","-","-","","-",""
"C(C)[N+](CC)(CC)CCCCCCCC.F[P-](F)(F)(F)(F)F","-","-","AUTO_1746","C1226_A0011","A132065","-","-","-","88.0","Celsius","-","-","-","-","88.0","Celsius","-","-","-","-","","-",""
"C[N+]1=CC=C(C=C1)C2=CC=NC=C2.[I-]","-","-","AUTO_1747","C1227_A0069","A132065","-","-","-","240.0","Celsius","-","-","-","-","240.0","Celsius","-","-","-","-","","-",""
"C[N+]1=CC=C(C=C1)C2=CC=NC=C2.C(F)(F)(F)S(=O)(=O)[N-]S(=O)(=O)C(F)(F)F","-","-","AUTO_1748","C1227_A0048","A132065","-","-","-","70.0","Celsius","-","-","-","-","70.0","Celsius","-","-","-","-","","-",""
"CCCCCC[N+]1=CC=C(C=C1)C2=CC=NC=C2.[I-]","-","-","AUTO_1749","C1228_A0069","A132065","-","-","-","190.0","Celsius","-","-","-","-","190.0","Celsius","-","-","-","-","","-",""
"CCCCCCCCCC[N+]1=CC=C(C=C1)C2=CC=NC=C2.[I-]","-","-","AUTO_1750","C1229_A0069","A132065","-","-","-","124.0","Celsius","-","-","-","-","124.0","Celsius","-","-","-","-","","-",""
"O=C(C[N+]1=CC=CC=C1)CC.[Br-]","-","-","AUTO_1751","C1230_A0004","A132065","-","-","-","180.0","Celsius","-","-","-","-","180.0","Celsius","-","-","-","-","","-",""
"CC(C(C[N+]1=CC=CC=C1)=O)C.[Br-]","-","-","AUTO_1752","C1231_A0004","A132065","-","-","-","149.0","Celsius","-","-","-","-","149.0","Celsius","-","-","-","-","","-",""
"C(C(C)C)OC(=O)C[N+]1=CC=CC=C1.[Br-]","-","-","AUTO_1753","C1232_A0004","A132065","-","-","-","87.0","Celsius","-","-","-","-","87.0","Celsius","-","-","-","-","","-",""
"CCCCCCCCCCCC(=O)OCC[N+]1=CC=CC=C1.[Br-]","-","-","AUTO_1754","C1233_A0004","A132065","-","-","-","81.0","Celsius","-","-","-","-","81.0","Celsius","-","-","-","-","","-",""
"CCCCCCCCCCCCCCCC(=O)OCC[N+]1=CC=CC=C1.[Br-]","-","-","AUTO_1755","C1234_A0004","A132065","-","-","-","80.0","Celsius","-","-","-","-","80.0","Celsius","-","-","-","-","","-",""
"C(CCCCCCCCCCCCCCCCCCC)(=O)OCC[N+]1=CC=CC=C1.[Br-]","-","-","AUTO_1756","C1235_A0004","A132065","-","-","-","81.0","Celsius","-","-","-","-","81.0","Celsius","-","-","-","-","","-",""
"OC=1C(=[N+](C=CC1O)C)C(C)O.[Br-]","-","-","AUTO_1757","C1236_A0004","A132065","-","-","-","142.0","Celsius","-","-","-","-","142.0","Celsius","-","-","-","-","","-",""
"C(C1=CC=CC=C1)[N+]2=CC(=CC=C2)C(=O)N3C(OCC3)=O.[Br-]","-","-","AUTO_1758","C1237_A0004","A132065","-","-","-","109.0","Celsius","-","-","-","-","109.0","Celsius","-","-","-","-","","-",""
"C(C1=CC=CC=C1)[N+]2=CC(=CC=C2)C(N(C)C)=O.[Br-]","-","-","AUTO_1759","C1238_A0004","A132065","-","-","-","159.0","Celsius","-","-","-","-","159.0","Celsius","-","-","-","-","","-",""
"N#CCCC[N+]1=CC=CC=C1.[Br-]","-","-","AUTO_1760","C0233_A0004","A132065","-","-","-","83.0","Celsius","-","-","-","-","83.0","Celsius","-","-","-","-","","-",""
"C(#N)C[N+]1=CC(=CC=C1)C.[Br-]","-","-","AUTO_1761","C1239_A0004","A132065","-","-","-","183.0","Celsius","-","-","-","-","183.0","Celsius","-","-","-","-","","-",""
"C(#N)C[N+]1=C(C=CC=C1)C.[Br-]","-","-","AUTO_1762","C1240_A0004","A132065","-","-","-","194.0","Celsius","-","-","-","-","194.0","Celsius","-","-","-","-","","-",""
"C(#N)C[N+]1=C(C=CC(=C1)C)C.[Br-]","-","-","AUTO_1763","C1241_A0004","A132065","-","-","-","160.0","Celsius","-","-","-","-","160.0","Celsius","-","-","-","-","","-",""
"C(#N)CCC[N+]1=CC=C(C=C1)C.[Br-]","-","-","AUTO_1764","C1242_A0004","A132065","-","-","-","124.0","Celsius","-","-","-","-","124.0","Celsius","-","-","-","-","","-",""
"C(#N)CCC[N+]1=C(C=CC=C1)C.[Br-]","-","-","AUTO_1765","C1243_A0004","A132065","-","-","-","139.0","Celsius","-","-","-","-","139.0","Celsius","-","-","-","-","","-",""
"C(#N)CCC[N+]1=C(C=CC(=C1)C)C.[Br-]","-","-","AUTO_1766","C1244_A0004","A132065","-","-","-","142.0","Celsius","-","-","-","-","142.0","Celsius","-","-","-","-","","-",""
"C(#N)C[N+]1=CC=C(C=C1)CC.[Br-]","-","-","AUTO_1767","C1245_A0004","A132065","-","-","-","120.0","Celsius","-","-","-","-","120.0","Celsius","-","-","-","-","","-",""
"C(#N)C[N+]1=C(C=CC=C1)CC.[Br-]","-","-","AUTO_1768","C1246_A0004","A132065","-","-","-","173.0","Celsius","-","-","-","-","173.0","Celsius","-","-","-","-","","-",""
"C(#N)CCC[N+]1=CC=C(C=C1)CC.[Br-]","-","-","AUTO_1769","C1247_A0004","A132065","-","-","-","152.0","Celsius","-","-","-","-","152.0","Celsius","-","-","-","-","","-",""
"C(#N)CCC[N+]1=CC(=CC=C1)C(=O)OC.[Br-]","-","-","AUTO_1770","C1248_A0004","A132065","-","-","-","182.0","Celsius","-","-","-","-","182.0","Celsius","-","-","-","-","","-",""
"C(#N)C[N+]1(CCCCC1)C.[Br-]","-","-","AUTO_1771","C1249_A0004","A132065","-","-","-","192.0","Celsius","-","-","-","-","192.0","Celsius","-","-","-","-","","-",""
"C(#N)CCC[N+]1(CCCCC1)C.[Br-]","-","-","AUTO_1772","C1250_A0004","A132065","-","-","-","137.0","Celsius","-","-","-","-","137.0","Celsius","-","-","-","-","","-",""
"C(#N)C[N+]1(CCCC1)CC#N.[Br-]","-","-","AUTO_1773","C1251_A0004","A132065","-","-","-","142.0","Celsius","-","-","-","-","142.0","Celsius","-","-","-","-","","-",""
"C(#N)C[N+]1(CCCCC1)CC#N.[Br-]","-","-","AUTO_1774","C1252_A0004","A132065","-","-","-","199.0","Celsius","-","-","-","-","199.0","Celsius","-","-","-","-","","-",""
"N#CC[N+]1=CC=CC=C1.C(F)(F)(F)S(=O)(=O)[N-]S(=O)(=O)C(F)(F)F","-","-","AUTO_1775","C0364_A0048","A132065","-","-","-","44.0","Celsius","-","-","-","-","44.0","Celsius","-","-","-","-","","-",""
"C(#N)C[N+]1=C(C=CC=C1)C.C(F)(F)(F)S(=O)(=O)[N-]S(=O)(=O)C(F)(F)F","-","-","AUTO_1776","C1240_A0048","A132065","-","-","-","51.0","Celsius","-","-","-","-","51.0","Celsius","-","-","-","-","","-",""
"C(#N)C[N+]1=CC=C(C=C1)CC.C(F)(F)(F)S(=O)(=O)[N-]S(=O)(=O)C(F)(F)F","-","-","AUTO_1777","C1245_A0048","A132065","-","-","-","48.0","Celsius","-","-","-","-","48.0","Celsius","-","-","-","-","","-",""