"SMILES","CASRN","EXTERNALID","N","NAME","ARTICLEID","PUBMEDID","PAGE","TABLE","Melting Point","UNIT {Melting Point}","Decomposition","UNIT {Decomposition}","Glass-transition temperature (Tg)","UNIT {Glass-transition temperature (Tg)}","Melting Point {measured, converted}","UNIT {Melting Point}","Decomposition {measured, converted}","UNIT {Decomposition}","Glass-transition temperature (Tg) {measured, converted}","UNIT {Glass-transition temperature (Tg)}","weight loss","UNIT {weight loss}","Solvent"
"FC(F)(F)S(=O)(=O)[N-]S(=O)(=O)C(F)(F)F.CCCCCCCCCCN1C=C[N+](CCCCCCCCCC)=C1","-","-","AUTO_2444","-","A140250","-","-","-","-","-","414.0","Celsius","-","-","-","-","414.0","Celsius","-","-","","-",""
"FC(F)(F)S(=O)(=O)[N-]S(=O)(=O)C(F)(F)F.CC[N+]1=CN(CCCNS(=O)(=O)C2=CC=CC3=C(C=CC=C23)N(C)C)C=C1","-","-","AUTO_2446","-","A140250","-","-","-","-","-","414.0","Celsius","-","-","-","-","414.0","Celsius","-","-","","-",""
"FC(F)(F)S(=O)(=O)[N-]S(=O)(=O)C(F)(F)F.CCCCCCCCN1C=C[N+](CCCCCCCC)=C1","-","-","AUTO_2451","-","A140250","-","-","-","-","-","416.0","Celsius","-","-","-","-","416.0","Celsius","-","-","","-",""
"FC(F)(F)S(=O)(=O)[N-]S(=O)(=O)C(F)(F)F.CN1C=C[N+](CCC(F)(F)C(F)(F)C(F)(F)C(F)(F)C(F)(F)C(F)(F)C(F)(F)C(F)(F)F)=C1","-","-","AUTO_2452","-","A140250","-","-","-","-","-","416.0","Celsius","-","-","-","-","416.0","Celsius","-","-","","-",""
"FC(F)(F)S(=O)(=O)[N-]S(=O)(=O)C(F)(F)F.CN1C=C[N+](CC2=CC=CC3=CC=CC=C23)=C1","-","-","AUTO_2456","-","A140250","-","-","-","-","-","417.0","Celsius","-","-","-","-","417.0","Celsius","-","-","","-",""
"CCC[N+]1(C)CCCC1.[O-]S(NS(=O)(=O)C(F)(F)F)(NS(=O)(=O)C(F)(F)F)C(F)(F)F","-","-","AUTO_2461","-","A139577","26840215","-","-","-","-","420.0","Celsius","-","-","-","-","420.0","Celsius","-","-","","-",""
"CCCCN1C=C[N+](CCCC)=C1.FC(F)(F)S(=O)(=O)[N-]S(=O)(=O)C(F)(F)F","-","-","AUTO_2464","-","A140250","-","-","-","-","-","421.0","Celsius","-","-","-","-","421.0","Celsius","-","-","","-",""
"CN1C=C[N+](CCC(F)(F)C(F)(F)F)=C1.FC(F)(F)S(=O)(=O)[N-]S(=O)(=O)C(F)(F)F","-","-","AUTO_2469","-","A140250","-","-","-","-","-","422.0","Celsius","-","-","-","-","422.0","Celsius","-","-","","-",""
"FC(F)(F)S(=O)(=O)[N-]S(=O)(=O)C(F)(F)F.CN1C=C[N+](CCC(F)(F)C(F)(F)C(F)(F)C(F)(F)C(F)(F)C(F)(F)F)=C1","-","-","AUTO_2472","-","A140250","-","-","-","-","-","423.0","Celsius","-","-","-","-","423.0","Celsius","-","-","","-",""
"CC[N+](C)(CC)CCOC.[O-]S(NS(=O)(=O)C(F)(F)F)(NS(=O)(=O)C(F)(F)F)C(F)(F)F","-","-","AUTO_2478","-","A139577","26840215","-","-","-","-","425.0","Celsius","-","-","-","-","425.0","Celsius","-","-","","-",""
"[O-]S(=O)(=O)C(F)(F)F.CCCCCCCC[N+]1=CC=C(C=C1)N(C)C","-","-","AUTO_2480","-","A140250","-","-","-","-","-","426.99","Celsius","-","-","-","-","426.99","Celsius","-","-","","-",""
"CCCC[N+](C)(CC)CC.[O-]S(NS(=O)(=O)C(F)(F)F)(NS(=O)(=O)C(F)(F)F)C(F)(F)F","-","-","AUTO_2490","-","A139577","26840215","-","-","-","-","430.0","Celsius","-","-","-","-","430.0","Celsius","-","-","","-",""
"CC[N+]1=CN(C)C=C1.[O-]S(NS(=O)(=O)C(F)(F)F)(NS(=O)(=O)C(F)(F)F)C(F)(F)F","-","-","AUTO_2501","-","A139577","26840215","-","-","-","-","434.0","Celsius","-","-","-","-","434.0","Celsius","-","-","","-",""
"CCC[N+]1(C)CCCCC1.[O-]S(NS(=O)(=O)C(F)(F)F)(NS(=O)(=O)C(F)(F)F)C(F)(F)F","-","-","AUTO_2502","-","A139577","26840215","-","-","-","-","434.0","Celsius","-","-","-","-","434.0","Celsius","-","-","","-",""
"CN(C)C1=CC=[N+](C)C=C1.FC(F)(F)S(=O)(=O)[N-]S(=O)(=O)C(F)(F)F","-","-","AUTO_2541","-","A139506","14518901","-","-","-","-","468.0","Celsius","-","-","-","-","468.0","Celsius","-","-","","-",""
"OS([O-])(=O)=O.CN1C=C[N+](=C1)S(O)(=O)=O","-","-","AUTO_2547","-","A140250","-","-","","-","-","255.0","Celsius","-","-","-","-","255.0","Celsius","-","-","","-",""
"[Cl-].CCOC(=[NH2+])C1=CC=CC=C1","-","-","AUTO_2562","-","A140250","-","-","","-","-","111.0","Celsius","-","-","-","-","111.0","Celsius","-","-","","-",""
"C[N+]1=CC(=CC=C1)C(N)=O.[O-]C(=O)COC1=CC=C(Cl)C=C1Cl","-","-","AUTO_2567","-","A140250","-","-","-","-","-","132.0 - 134.0","Celsius","-","-","-","-","133.0","Celsius","-","-","","-",""
"[Cl-].[NH3+]C(Cl)=N","-","-","AUTO_2569","-","A140250","-","-","","-","-","134.0","Celsius","-","-","-","-","134.0","Celsius","-","-","","-",""
"[Cl-].COC1=CC=C(CC[NH+](C)CCCC(C#N)(C(C)C)C2=CC=C(OC)C(OC)=C2)C=C1OC","-","-","AUTO_2574","-","A139545","20428054","-","","-","-","138.5","Celsius","-","-","-","-","138.5","Celsius","-","-","","-",""
"[I-].CC[S+](CC)CC","-","-","AUTO_2583","-","A140250","-","-","-","-","-","144.0 - 145.0","Celsius","-","-","-","-","144.5","Celsius","-","-","","-",""
"[Cl-].CC1(C)[NH2+][C@@H](CC2=CC=CC=C2)C(=O)N1CCO","-","-","AUTO_2584","-","A140250","-","-","","-","-","144.0","Celsius","-","-","-","-","144.0","Celsius","-","-","","-",""
"[I-].CN1[NH2+]N(CC2=CC=CC=C2)C=C1C3=CC=CC=C3","-","-","AUTO_2586","-","A139532","18785741","-","-","-","-","146.0 - 148.0","Celsius","-","-","-","-","147.0","Celsius","-","-","","-",""
"[Cl-].[NH3+]C(N)=O","-","-","AUTO_2588","-","A140250","-","-","","-","-","150.0","Celsius","-","-","-","-","150.0","Celsius","-","-","","-",""
"[Cl-].COC(=O)[C@@H]([NH3+])CC1=CC=CC=C1","-","-","AUTO_2592","-","A140250","-","-","","-","-","155.0","Celsius","-","-","-","-","155.0","Celsius","-","-","","-",""
"[Cl-].[NH3+]CC#CI","-","-","AUTO_2599","-","A139520","17047790","-","","-","-","168.0","Celsius","-","-","-","-","168.0","Celsius","-","-","","-",""
"[Br-].CC1=CC(C)=C([I+]C2=C(C)C=C(C)C=C2)C=C1","-","-","AUTO_2600","-","A140250","-","-","-","-","-","168.0 - 170.0","Celsius","-","-","-","-","169.0","Celsius","-","-","","-",""
"[Cl-].COC(=O)C[NH3+]","-","-","AUTO_2601","-","A139551","21509804","-","","-","-","172.5","Celsius","-","-","-","-","172.5","Celsius","-","-","","-",""
"[I-].[C@H]([NH3+])(CCC(O)=O)C(O)=O","-","-","AUTO_2609","-","A140250","-","-","","-","-","177.85","Celsius","-","-","-","-","177.85","Celsius","-","-","","-",""
"[O-]S(=O)(=O)C(F)(F)F.[C@H]12OC(C)(C)O[C@H]1[C@@H]3OC(C)(C)O[C@@H]3[C@H](C[N+]45CCN(CC4)CC5)O2","-","-","AUTO_2610","-","A139587","28948951","-","-","-","-","178.0 - 182.0","Celsius","-","-","-","-","180.0","Celsius","-","-","","-",""
"[Cl-].C[NH+](C)CCCC1=CC=C2C=CC3=CC=CC4=C3C2=C1C=C4","-","-","AUTO_2614","-","A139548","20825216","-","","-","-","182.84","Celsius","-","-","-","-","182.84","Celsius","-","-","","-",""
"[I-].[C@H]12OC(C)(C)O[C@H]1[C@@H]3OC(C)(C)O[C@@H]3[C@H](C[N+]45CCN(CC4)CC5)O2","-","-","AUTO_2619","-","A139587","28948951","-","-","-","-","189.0 - 192.0","Celsius","-","-","-","-","190.5","Celsius","-","-","","-",""
"[Cl-].CCOC(=O)CC1=C2CC[C@@H]([NH3+])CN2C3=C1C=CC=C3","-","-","AUTO_2623","-","A140250","-","-","","-","-","196.0","Celsius","-","-","-","-","196.0","Celsius","-","-","","-",""
"[Br-].BrC1=CC=C([I+]C2=CC=C(Br)C=C2)C=C1","-","-","AUTO_2624","-","A140250","-","-","-","-","-","198.0 - 199.0","Celsius","-","-","-","-","198.5","Celsius","-","-","","-",""
"[O-]S(=O)(=O)CCBr.[C@H]12OC(C)(C)O[C@H]1[C@@H]3OC(C)(C)O[C@@H]3[C@H](C[N+]45CCN(CC4)CC5)O2","-","-","AUTO_2625","-","A139587","28948951","-","-","-","-","198.0 - 200.0","Celsius","-","-","-","-","199.0","Celsius","-","-","","-",""
"CC(O)C([O-])=O.CC1(C)CC(CC(C)(C)N1[O])[N+](C)(C)C","-","-","AUTO_2627","-","A140250","-","-","-","-","-","200.0 - 210.0","Celsius","-","-","-","-","205.0","Celsius","-","-","","-",""
"[Cl-].N[NH2+]C1=CC=C(Cl)C=C1","-","-","AUTO_2635","-","A140250","-","-","","-","-","215.0","Celsius","-","-","-","-","215.0","Celsius","-","-","","-",""
"F[B-](F)(F)F.[C@H]12OC(C)(C)O[C@H]1[C@@H]3OC(C)(C)O[C@@H]3[C@H](C[N+]45CCN(CC4)CC5)O2","-","-","AUTO_2640","-","A139587","28948951","-","-","-","-","222.0 - 224.0","Celsius","-","-","-","-","223.0","Celsius","-","-","","-",""
"[I-].CCCC[S+](C)C","-","-","AUTO_2643","-","A140250","-","-","-","-","-","228.0 - 230.0","Celsius","-","-","-","-","229.0","Celsius","-","-","","-",""
"[Br-].COC1=CC=C(C[P+](C2=CC=CC=C2)(C3=CC=CC=C3)C4=CC=CC=C4)C=C1","-","-","AUTO_2647","-","A140250","-","-","-","-","-","235.0 - 236.0","Celsius","-","-","-","-","235.5","Celsius","-","-","","-",""
"[Br-].BrCC[N+]1=CC2=C(C=CC=C2)C3=C1C=CC=C3","-","-","AUTO_2648","-","A139539","19807081","-","-","-","-","235.0 - 236.0","Celsius","-","-","-","-","235.5","Celsius","-","-","","-",""
"[O-]S(=O)(=O)C(F)(F)F.CC1(C)CC(CC(C)(C)N1[O])[N+](C)(C)C","-","-","AUTO_2651","-","A140250","-","-","-","-","-","242.0 - 251.0","Celsius","-","-","-","-","246.5","Celsius","-","-","","-",""
"F[P-](F)(F)(F)(F)F.[C@H]12OC(C)(C)O[C@H]1[C@@H]3OC(C)(C)O[C@@H]3[C@H](C[N+]45CCN(CC4)CC5)O2","-","-","AUTO_2657","-","A139587","28948951","-","-","-","-","249.0 - 252.0","Celsius","-","-","-","-","250.5","Celsius","-","-","","-",""
"[Br-].O=N(=O)C1=CC=C(C[P+](C2=CC=CC=C2)(C3=CC=CC=C3)C4=CC=CC=C4)C=C1","-","-","AUTO_2660","-","A140250","-","-","-","-","-","261.0 - 262.0","Celsius","-","-","-","-","261.5","Celsius","-","-","","-",""
"[Br-].CC[N+]1=C(C2=CC=CC=C2)C3=C(C=CC(N)=C3)C4=C1C=C(N)C=C4","-","-","AUTO_2661","-","A140250","-","-","-","-","-","261.0 - 264.0","Celsius","-","-","-","-","262.5","Celsius","-","-","","-",""
"[Cl-].O[C@H]1C[NH2+][C@@H](C1)C(O)(C2=CC=CC=C2)C3=CC=CC=C3","-","-","AUTO_2662","-","A139543","20141122","-","","-","-","266.0","Celsius","-","-","-","-","266.0","Celsius","-","-","","-",""
"C[NH2+]C.CN(C)C([O-])=O","-","-","AUTO_2694","-","A140250","-","-","","-","-","60.0","Celsius","-","-","-","-","60.0","Celsius","-","-","","-",""
"CCCCNC([O-])=O.CN(C)C(=[NH2+])N(C)C","-","-","AUTO_2696","-","A139589","29388992","-","","-","-","74.84","Celsius","-","-","-","-","74.84","Celsius","-","-","","-",""
"CC[NH+]1C=NC=C1.F[B-](F)(F)F","-","-","AUTO_1","C0481_A0020","A133072","-","-","-","-","-","309.0","Celsius","-","-","-","-","309.0","Celsius","-","-","","-",""
"CC[NH+]1C=NC=C1.FC(S(=O)(=O)[N-]S(=O)(=O)C(F)(F)F)(F)F","-","-","AUTO_2","C0481_A0048","A133072","-","-","-","-","-","365.0","Celsius","-","-","-","-","365.0","Celsius","-","-","","-",""
"CC[NH+]1C=NC=C1.FC(F)(F)C(F)(F)S(=O)(=O)[N-]S(=O)(=O)C(F)(F)C(F)(F)F","-","-","AUTO_3","C0481_A0067","A133072","-","-","-","-","-","255.0","Celsius","-","-","-","-","255.0","Celsius","-","-","","-",""
"CC[NH+]1C=NC=C1.FC(S(=O)(=O)[O-])(F)F","-","-","AUTO_4","C0481_A0084","A133072","-","-","-","-","-","300.0","Celsius","-","-","-","-","300.0","Celsius","-","-","","-",""
"CC[NH+]1C=NC=C1.OC(C(=O)[O-])C","-","-","AUTO_5","C0481_A0121","A133072","-","-","-","-","-","208.0","Celsius","-","-","-","-","208.0","Celsius","-","-","","-",""
"CC[NH+]1C=NC=C1.C([C@@H](O)C)(=O)[O-]","-","-","AUTO_6","C0481_A0081","A133072","-","-","-","-","-","199.0","Celsius","-","-","-","-","199.0","Celsius","-","-","","-",""
"CCC[NH+]1C=NC=C1.OC(C(=O)[O-])C","-","-","AUTO_7","C1404_A0121","A133072","-","-","-","-","-","211.0","Celsius","-","-","-","-","211.0","Celsius","-","-","","-",""
"CCC[NH+]1C=NC=C1.C([C@@H](O)C)(=O)[O-]","-","-","AUTO_8","C1404_A0081","A133072","-","-","-","-","-","209.0","Celsius","-","-","-","-","209.0","Celsius","-","-","","-",""
"CCCC[NH+]1C=NC=C1.OC(C(=O)[O-])C","-","-","AUTO_9","C1376_A0121","A133072","-","-","-","-","-","245.0","Celsius","-","-","-","-","245.0","Celsius","-","-","","-",""
"CCCC[NH+]1C=NC=C1.C([C@@H](O)C)(=O)[O-]","-","-","AUTO_10","C1376_A0081","A133072","-","-","-","-","-","239.0","Celsius","-","-","-","-","239.0","Celsius","-","-","","-",""
"CCCCC[NH+]1C=NC=C1.OC(C(=O)[O-])C","-","-","AUTO_11","C1402_A0121","A133072","-","-","-","-","-","229.0","Celsius","-","-","-","-","229.0","Celsius","-","-","","-",""
"CCCCC[NH+]1C=NC=C1.C([C@@H](O)C)(=O)[O-]","-","-","AUTO_12","C1402_A0081","A133072","-","-","-","-","-","227.0","Celsius","-","-","-","-","227.0","Celsius","-","-","","-",""
"CCCCCC[NH+]1C=NC=C1.OC(C(=O)[O-])C","-","-","AUTO_13","C1394_A0121","A133072","-","-","-","-","-","226.0","Celsius","-","-","-","-","226.0","Celsius","-","-","","-",""
"CCCCCC[NH+]1C=NC=C1.C([C@@H](O)C)(=O)[O-]","-","-","AUTO_14","C1394_A0081","A133072","-","-","-","-","-","222.0","Celsius","-","-","-","-","222.0","Celsius","-","-","","-",""
"CCCCCCC[NH+]1C=CN=C1.OC(C(=O)[O-])C","-","-","AUTO_15","C1392_A0121","A133072","-","-","-","-","-","225.0","Celsius","-","-","-","-","225.0","Celsius","-","-","","-",""
"CCCCCCC[NH+]1C=CN=C1.C([C@@H](O)C)(=O)[O-]","-","-","AUTO_16","C1392_A0081","A133072","-","-","","-","-","222.0","Celsius","-","-","-","-","222.0","Celsius","-","-","","-","dimethylsulfoxide"
"CCCCCCCC[NH+]1C=CN=C1.OC(C(=O)[O-])C","-","-","AUTO_17","C1400_A0121","A133072","-","-","-","-","-","223.0","Celsius","-","-","-","-","223.0","Celsius","-","-","","-",""
"CCCCCCCC[NH+]1C=CN=C1.C([C@@H](O)C)(=O)[O-]","-","-","AUTO_18","C1400_A0081","A133072","-","-","-","-","-","221.0","Celsius","-","-","-","-","221.0","Celsius","-","-","","-",""
"CCCCCCCCC[NH+]1C=NC=C1.OC(C(=O)[O-])C","-","-","AUTO_19","C1397_A0121","A133072","-","-","-","-","-","209.0","Celsius","-","-","-","-","209.0","Celsius","-","-","","-",""
"CCCCCCCCC[NH+]1C=NC=C1.C([C@@H](O)C)(=O)[O-]","-","-","AUTO_20","C1397_A0081","A133072","-","-","-","-","-","204.0","Celsius","-","-","-","-","204.0","Celsius","-","-","","-",""
"CCCCCCCCCC[NH+]1C=NC=C1.OC(C(=O)[O-])C","-","-","AUTO_21","C1382_A0121","A133072","-","-","-","-","-","207.0","Celsius","-","-","-","-","207.0","Celsius","-","-","","-",""
"CCCCCCCCCC[NH+]1C=NC=C1.C([C@@H](O)C)(=O)[O-]","-","-","AUTO_22","C1382_A0081","A133072","-","-","-","-","-","199.0","Celsius","-","-","-","-","199.0","Celsius","-","-","","-",""
"CCCCCCCCCCC[NH+]1C=CN=C1.OC(C(=O)[O-])C","-","-","AUTO_23","C1412_A0121","A133072","-","-","-","-","-","194.0","Celsius","-","-","-","-","194.0","Celsius","-","-","","-",""
"CCCCCCCCCCCC[NH+]1C=CN=C1.C([C@@H](O)C)(=O)[O-]","-","-","AUTO_24","C1384_A0081","A133072","-","-","-","-","-","194.0","Celsius","-","-","-","-","194.0","Celsius","-","-","","-",""
"CCCCCCCCCCCC[NH+]1C=CN=C1.OC(C(=O)[O-])C","-","-","AUTO_25","C1384_A0121","A133072","-","-","-","-","-","191.0","Celsius","-","-","-","-","191.0","Celsius","-","-","","-",""
"CCCCOC[NH+]1C=NC=C1.C([C@@H](O)C)(=O)[O-]","-","-","AUTO_26","C1377_A0081","A133072","-","-","-","-","-","188.0","Celsius","-","-","-","-","188.0","Celsius","-","-","","-",""
"CCCCOC[NH+]1C=NC=C1.OC(C(=O)[O-])C","-","-","AUTO_27","C1377_A0121","A133072","-","-","-","-","-","217.0","Celsius","-","-","-","-","217.0","Celsius","-","-","","-",""
"CCCCCOC[NH+]1C=NC=C1.C([C@@H](O)C)(=O)[O-]","-","-","AUTO_28","C1403_A0081","A133072","-","-","-","-","-","197.0","Celsius","-","-","-","-","197.0","Celsius","-","-","","-",""
"CCCCCOC[NH+]1C=NC=C1.OC(C(=O)[O-])C","-","-","AUTO_29","C1403_A0121","A133072","-","-","-","-","-","193.0","Celsius","-","-","-","-","193.0","Celsius","-","-","","-",""
"CCCCCCOC[NH+]1C=NC=C1.C([C@@H](O)C)(=O)[O-]","-","-","AUTO_30","C1395_A0081","A133072","-","-","","-","-","211.0","Celsius","-","-","-","-","211.0","Celsius","-","-","","-","dimethylsulfoxide"
"CCCCCCOC[NH+]1C=NC=C1.OC(C(=O)[O-])C","-","-","AUTO_31","C1395_A0121","A133072","-","-","-","-","-","208.0","Celsius","-","-","-","-","208.0","Celsius","-","-","","-",""
"CCCCCCCOC[NH+]1C=NC=C1.C([C@@H](O)C)(=O)[O-]","-","-","AUTO_32","C1393_A0081","A133072","-","-","-","-","-","225.0","Celsius","-","-","-","-","225.0","Celsius","-","-","","-",""
"CCCCCCCOC[NH+]1C=NC=C1.OC(C(=O)[O-])C","-","-","AUTO_33","C1393_A0121","A133072","-","-","-","-","-","218.0","Celsius","-","-","-","-","218.0","Celsius","-","-","","-",""
"CCCCCCCCOC[NH+]1C=NC=C1.C([C@@H](O)C)(=O)[O-]","-","-","AUTO_34","C1401_A0081","A133072","-","-","-","-","-","228.0","Celsius","-","-","-","-","228.0","Celsius","-","-","","-",""
"CCCCCCCCOC[NH+]1C=NC=C1.OC(C(=O)[O-])C","-","-","AUTO_35","C1401_A0121","A133072","-","-","-","-","-","223.0","Celsius","-","-","-","-","223.0","Celsius","-","-","","-",""
"CCCCCCCCCOC[NH+]1C=CN=C1.C([C@@H](O)C)(=O)[O-]","-","-","AUTO_36","C1398_A0081","A133072","-","-","-","-","-","238.0","Celsius","-","-","-","-","238.0","Celsius","-","-","","-",""
"CCCCCCCCCOC[NH+]1C=CN=C1.OC(C(=O)[O-])C","-","-","AUTO_37","C1398_A0121","A133072","-","-","-","-","-","231.0","Celsius","-","-","-","-","231.0","Celsius","-","-","","-",""
"CCCCCCCCCCOC[NH+]1C=CN=C1.C([C@@H](O)C)(=O)[O-]","-","-","AUTO_38","C1383_A0081","A133072","-","-","-","-","-","208.0","Celsius","-","-","-","-","208.0","Celsius","-","-","","-",""
"CCCCCCCCCCOC[NH+]1C=CN=C1.OC(C(=O)[O-])C","-","-","AUTO_39","C1383_A0121","A133072","-","-","-","-","-","202.0","Celsius","-","-","-","-","202.0","Celsius","-","-","","-",""
"CCCCCCCCCCCOC[NH+]1C=NC=C1.C([C@@H](O)C)(=O)[O-]","-","-","AUTO_40","C1413_A0081","A133072","-","-","","-","-","222.0","Celsius","-","-","-","-","222.0","Celsius","-","-","","-","dimethylsulfoxide"
"CCCCCCCCCCCOC[NH+]1C=NC=C1.OC(C(=O)[O-])C","-","-","AUTO_41","C1413_A0121","A133072","-","-","-","-","-","216.0","Celsius","-","-","-","-","216.0","Celsius","-","-","","-",""
"CCCCCCCCCCCCOC[NH+]1C=NC=C1.C([C@@H](O)C)(=O)[O-]","-","-","AUTO_42","C1385_A0081","A133072","-","-","-","-","-","246.0","Celsius","-","-","-","-","246.0","Celsius","-","-","","-",""
"CCCCCCCCCCCCOC[NH+]1C=NC=C1.OC(C(=O)[O-])C","-","-","AUTO_43","C1385_A0121","A133072","-","-","-","-","-","239.0","Celsius","-","-","-","-","239.0","Celsius","-","-","","-",""
"CN1C=C[N+](=C1)C.FC(C(F)(F)F)(F)[B-](F)(F)F","-","-","AUTO_44","C0958_A0043","A133072","-","-","-","-","-","290.0","Celsius","-","-","-","-","290.0","Celsius","-","-","","-",""
"CN1C=C[N+](=C1)C.FC(C(F)(F)[B-](F)(F)F)(C(F)(F)F)F","-","-","AUTO_45","C0958_A0009","A133072","-","-","-","-","-","279.0","Celsius","-","-","-","-","279.0","Celsius","-","-","","-",""
"CN1C=C[N+](=C1)C.FC(C(C(F)(F)[B-](F)(F)F)(F)F)(C(F)(F)F)F","-","-","AUTO_46","C0958_A0021","A133072","-","-","-","-","-","275.0","Celsius","-","-","-","-","275.0","Celsius","-","-","","-",""
"CC[N+]=1C=CN(C1)C.F[B-](F)(F)F","-","-","AUTO_47","C0460_A0020","A133072","-","-","-","-","-","445.0","Celsius","-","-","-","-","445.0","Celsius","-","-","","-",""
"CC[N+]=1C=CN(C1)C.FC(F)(F)[B-](F)(F)F","-","-","AUTO_48","C0460_A0008","A133072","-","-","-","-","-","246.0","Celsius","-","-","-","-","246.0","Celsius","-","-","","-",""
"CC[N+]=1C=CN(C1)C.FC(C(F)(F)F)(F)[B-](F)(F)F","-","-","AUTO_49","C0460_A0043","A133072","-","-","-","-","-","305.0","Celsius","-","-","-","-","305.0","Celsius","-","-","","-",""
"CC[N+]=1C=CN(C1)C.FC(C(F)(F)[B-](F)(F)F)(C(F)(F)F)F","-","-","AUTO_50","C0460_A0009","A133072","-","-","-","-","-","304.0","Celsius","-","-","-","-","304.0","Celsius","-","-","","-",""
"CC[N+]=1C=CN(C1)C.FC(C(C(F)(F)[B-](F)(F)F)(F)F)(C(F)(F)F)F","-","-","AUTO_51","C0460_A0021","A133072","-","-","-","-","-","277.0","Celsius","-","-","-","-","277.0","Celsius","-","-","","-",""
"CC[N+]=1C=CN(C1)C.C[B-](F)(F)F","-","-","AUTO_52","C0460_A0143","A133072","-","-","-","-","-","272.0","Celsius","-","-","-","-","272.0","Celsius","-","-","","-",""
"CC[N+]=1C=CN(C1)C.F[B-](CC)(F)F","-","-","AUTO_53","C0460_A0140","A133072","-","-","-","-","-","258.0","Celsius","-","-","-","-","258.0","Celsius","-","-","","-",""
"CC[N+]=1C=CN(C1)C.C(CC)[B-](F)(F)F","-","-","AUTO_54","C0460_A0002","A133072","-","-","-","-","-","281.0","Celsius","-","-","-","-","281.0","Celsius","-","-","","-",""
"CC[N+]=1C=CN(C1)C.C(CCC)[B-](F)(F)F","-","-","AUTO_55","C0460_A0041","A133072","-","-","-","-","-","249.0","Celsius","-","-","-","-","249.0","Celsius","-","-","","-",""
"CC[N+]=1C=CN(C1)C.C(CCCC)[B-](F)(F)F","-","-","AUTO_56","C0460_A0025","A133072","-","-","-","-","-","292.0","Celsius","-","-","-","-","292.0","Celsius","-","-","","-",""
"CC[N+]=1C=CN(C1)C.F[B-](C=C)(F)F","-","-","AUTO_57","C0460_A0151","A133072","-","-","-","-","-","227.0","Celsius","-","-","-","-","227.0","Celsius","-","-","","-",""
"CC[N+]=1C=CN(C1)C.FC(F)(F)C(F)(F)S(=O)(=O)[N-]S(=O)(=O)C(F)(F)C(F)(F)F","-","-","AUTO_58","C0460_A0067","A133072","-","-","-","-","-","423.0","Celsius","-","-","-","-","423.0","Celsius","-","-","","-",""
"CC[N+]=1C=CN(C1)C.C(#N)[N-]C#N","-","-","AUTO_59","C0460_A0056","A133072","-","-","-","-","-","240.0","Celsius","-","-","-","-","240.0","Celsius","-","-","","-",""