"SMILES","CASRN","EXTERNALID","N","NAME","ARTICLEID","PUBMEDID","PAGE","TABLE","Melting Point","UNIT {Melting Point}","Decomposition","UNIT {Decomposition}","Glass-transition temperature (Tg)","UNIT {Glass-transition temperature (Tg)}","Melting Point {measured, converted}","UNIT {Melting Point}","Decomposition {measured, converted}","UNIT {Decomposition}","Glass-transition temperature (Tg) {measured, converted}","UNIT {Glass-transition temperature (Tg)}","weight loss","UNIT {weight loss}","Solvent"
"O=N(=O)C1=NC(C#N)=C([N-]1)C#N.CCCCCCCC[N+]1=CN(C)C=C1","-","-","AUTO_1110","-","A132545","-","-","-","-","-","229.0","Celsius","-","-","-","-","229.0","Celsius","-","-","","-",""
"CC([O-])=O.CCCCCCCCCCCCCCN1C=C[N+](CCCCCCCCCCCCCC)=C1","-","-","AUTO_1111","-","A139517","16586524","-","-","-","-","229.0","Celsius","-","-","-","-","229.0","Celsius","-","-","","-",""
"OC(=O)C([O-])=O.CCCCCCCCCCCCN1C=C[N+](CCCCCCCCCCCC)=C1","-","-","AUTO_1112","-","A139579","26885778","-","-","-","-","229.0","Celsius","-","-","-","-","229.0","Celsius","-","-","","-",""
"OC(=O)C([O-])=O.CCCCCCCCCCCCCCN1C=C[N+](CCCCCCCCCCCCCC)=C1","-","-","AUTO_1113","-","A139567","24888334","-","-","-","-","229.0","Celsius","-","-","-","-","229.0","Celsius","-","-","","-",""
"OC(=O)C([O-])=O.CCCCCCCCCCCCCCCCN1C=C[N+](CCCCCCCCCCCCCCCC)=C1","-","-","AUTO_1114","-","A139600","33354944","-","-","-","-","229.0","Celsius","-","-","-","-","229.0","Celsius","-","-","","-",""
"CCCCCCCC[S+]1CCCC1.C1=CC=C(C=C1)[B-](C2=CC=CC=C2)(C3=CC=CC=C3)C4=CC=CC=C4","-","-","AUTO_1115","-","A139511","15762697","-","-","-","-","229.0","Celsius","-","-","-","-","229.0","Celsius","-","-","","-",""
"[I-].C[N+](C)(C)N","-","-","AUTO_1116","-","A139556","22740440","-","-","-","-","229.7","Celsius","-","-","-","-","229.7","Celsius","-","-","","-",""
"[N-]=C=S.CCCC[N+](CCCC)(CCCC)CCCC","-","-","AUTO_1118","-","A132545","-","-","-","-","-","230.0","Celsius","-","-","-","-","230.0","Celsius","-","-","","-",""
"[C-]#N.C1=CC=C(C=C1)P(=[N+]=P(C2=CC=CC=C2)(C3=CC=CC=C3)C4=CC=CC=C4)(C5=CC=CC=C5)C6=CC=CC=C6","-","-","AUTO_1119","-","A132545","-","-","-","-","-","230.0","Celsius","-","-","-","-","230.0","Celsius","-","-","","-",""
"[Cl-].CCCCCCCCCCCCCC[N+](C)(C)CCO","-","-","AUTO_1120","-","A139580","27136274","-","-","-","-","230.0","Celsius","-","-","-","-","230.0","Celsius","-","-","","-",""
"[N-]=C=S.CCCCCCCCCC[N+]1=CN(C)C=C1","-","-","AUTO_1121","-","A139517","16586524","-","-","-","-","230.0","Celsius","-","-","-","-","230.0","Celsius","-","-","","-",""
"FC(F)(F)S(=O)(=O)[N-]S(=O)(=O)C(F)(F)F.CCCCCCOCN1C=C[N+](COCCCCCC)=C1","-","-","AUTO_1123","-","A139525","17665379","-","-","-","-","230.0","Celsius","-","-","-","-","230.0","Celsius","-","-","","-",""
"N#CC1=C(N=C[N-]1)C#N.CCCC[N+]1=CN(C)C=C1","-","-","AUTO_1124","-","A139590","29745392","-","-","-","-","230.0","Celsius","-","-","-","-","230.0","Celsius","-","-","","-",""
"COC1=CC=CC=C1/C=C/C([O-])=O.CCCCCCCCCC[N+]1=CN(C)C=C1","-","-","AUTO_1125","-","A139507","15252794","-","-","-","-","230.0","Celsius","-","-","-","-","230.0","Celsius","-","-","","-",""
"FC(F)(F)S(=O)(=O)[N-]S(=O)(=O)C(F)(F)F.CCCCCOCN1C=C[N+](COCCCCC)=C1","-","-","AUTO_1127","-","A139507","15252794","-","-","-","-","230.0","Celsius","-","-","-","-","230.0","Celsius","-","-","","-",""
"[O-]C(=O)CNCC([O-])=O.CCCC[N+]1=CN(C)C=C1","-","-","AUTO_1129","-","A139600","33354944","-","-","-","-","230.0","Celsius","-","-","-","-","230.0","Celsius","-","-","","-",""
"COCC[N+]1=CN(C)C=C1.[BH2-](N1C=CN=C1)N2C=CN=C2","-","-","AUTO_1131","-","A139570","25328142","-","-","-","-","230.0","Celsius","-","-","-","-","230.0","Celsius","-","-","","-",""
"[O-]S(O)(=O)=O.C[Si]1(C)C[NH+](C[Si](C)(C)O1)C2CCCC2","-","-","AUTO_1132","-","A132545","-","-","","-","-","230.0","Celsius","-","-","-","-","230.0","Celsius","-","-","","-",""
"CCCCC[S+]1CCCC1.C1=CC=C(C=C1)[B-](C2=CC=CC=C2)(C3=CC=CC=C3)C4=CC=CC=C4","-","-","AUTO_1133","-","A132545","-","-","-","-","-","230.0","Celsius","-","-","-","-","230.0","Celsius","-","-","","-",""
"C[N+]1=CN(CC=C)C=C1.[O-]C(=O)C1=CC=CC=C1","-","-","AUTO_1135","-","A132545","-","-","-","-","-","231.0","Celsius","-","-","-","-","231.0","Celsius","-","-","","-",""
"CCCN1C=[N+](C)C=N1.O=N(=O)C1=NC(=N[N-]1)N(=O)=O","-","-","AUTO_1136","-","A132545","-","-","-","-","-","231.0","Celsius","-","-","-","-","231.0","Celsius","-","-","","-",""
"N#C[N-]C#N.CCCCCCCCCCCCOC(=O)C[N+](C)(C)C","-","-","AUTO_1138","-","A132545","-","-","-","-","-","231.0","Celsius","-","-","-","-","231.0","Celsius","-","-","","-",""
"CC(=O)NCC([O-])=O.CCCCCC[N+]1(C)CCOCC1","-","-","AUTO_1139","-","A139571","25498686","-","-","-","-","231.0","Celsius","-","-","-","-","231.0","Celsius","-","-","","-",""
"[Br-].CCCCCC[N+]1=CC=C(N(C)C)C(C)=C1","-","-","AUTO_1140","-","A132545","-","-","-","-","-","231.85","Celsius","-","-","-","-","231.85","Celsius","-","-","","-",""
"F[B-](F)(F)C(F)(F)F.COCC[N+]1(C)CCCC1","-","-","AUTO_1141","-","A132545","-","-","-","-","-","232.0","Celsius","-","-","-","-","232.0","Celsius","-","-","","-",""
"COC1=C(C([O-])=O)C(Cl)=CC=C1Cl.CCCC[P+](CCCC)(CCCC)CCCC","-","-","AUTO_1143","-","A132545","-","-","-","-","-","232.0","Celsius","-","-","-","-","232.0","Celsius","-","-","","-",""
"COC1=C(C([O-])=O)C(Cl)=CC=C1Cl.CCCCCCCCCC[N+](C)(C)CCCCCCCCCC","-","-","AUTO_1144","-","A139515","16389616","-","-","-","-","232.0","Celsius","-","-","-","-","232.0","Celsius","-","-","","-",""
"CC1=CC=[NH+]C=C1.[O-]C(=O)C(=CC1=CC=C(O)C=C1)C#N","-","-","AUTO_1147","-","A139592","32006830","-","","-","-","232.5","Celsius","-","-","-","-","232.5","Celsius","-","-","","-",""
"F[B-](F)(F)F.CCCC[N+]1=CC=CC(C)=C1","-","-","AUTO_1148","-","A132545","-","-","","-","-","232.85","Celsius","-","-","-","-","232.85","Celsius","-","-","","-",""
"OP(O)([O-])=O.CN1C=C[N+](CCC(O)=O)=C1","-","-","AUTO_1149","-","A132545","-","-","-","-","-","232.95","Celsius","-","-","-","-","232.95","Celsius","-","-","","-",""
"[Cl-].CCCCCCCCCCCCCCCC[N+](C)(C)CCO","-","-","AUTO_1150","-","A132545","-","-","-","-","-","233.0","Celsius","-","-","-","-","233.0","Celsius","-","-","","-",""
"CC[N+]1=CN(C)C=C1.N#C[BH2-]N1C=NN=N1","-","-","AUTO_1151","-","A139579","26885778","-","-","-","-","233.0","Celsius","-","-","-","-","233.0","Celsius","-","-","","-",""
"CC[N+](CC)(CC)CC.CN(C)C1=NC(C#N)=C([N-]1)C#N","-","-","AUTO_1152","-","A139590","29745392","-","-","-","-","233.0","Celsius","-","-","-","-","233.0","Celsius","-","-","","-",""
"N#C[N-]C#N.CC[N+](C)(C)CC=C","-","-","AUTO_1154","-","A132545","-","-","-","-","-","233.0","Celsius","-","-","-","-","233.0","Celsius","-","-","","-",""
"[Cl-].CCCCCCCCCCCCCCCC[N+]1=CC=CC=C1","-","-","AUTO_1158","-","A132545","-","-","-","-","-","234.0","Celsius","-","-","-","-","234.0","Celsius","-","-","","-",""
"[Cl-].C=CCN1C=C[N+](CC=C)=C1","-","-","AUTO_1159","-","A139593","32027458","-","-","-","-","234.0","Celsius","-","-","-","-","234.0","Celsius","-","-","","-",""
"[C-]#N.CC[N+](C)(CC)CC","-","-","AUTO_1160","-","A139517","16586524","-","-","-","-","234.0","Celsius","-","-","-","-","234.0","Celsius","-","-","","-",""
"[O-]S(=O)(=O)C(F)(F)F.CN1C=C[N+](C)=C1N(=O)=O","-","-","AUTO_1161","-","A132545","-","-","-","-","-","234.0","Celsius","-","-","-","-","234.0","Celsius","-","-","","-",""
"CCCCN1C=C[N+](C)=C1.CC1=NC(C#N)=C([N-]1)C#N","-","-","AUTO_1163","-","A139567","24888334","-","-","-","-","234.0","Celsius","-","-","-","-","234.0","Celsius","-","-","","-",""
"C[N+]1=CN(N)C=N1.O=N(=O)C1=NC(=N[N-]1)N(=O)=O","-","-","AUTO_1164","-","A139600","33354944","-","-","-","-","234.0","Celsius","-","-","-","-","234.0","Celsius","-","-","","-",""
"F[B-](F)(F)F.CCCCCCCCSC[N+]1=CN(C)C=C1","-","-","AUTO_1165","-","A132545","-","-","","-","-","234.0","Celsius","-","-","-","-","234.0","Celsius","-","-","","-",""
"CCCC[S+]1CCCC1.C1=CC=C(C=C1)[B-](C2=CC=CC=C2)(C3=CC=CC=C3)C4=CC=CC=C4","-","-","AUTO_1167","-","A132545","-","-","-","-","-","234.0","Celsius","-","-","-","-","234.0","Celsius","-","-","","-",""
"[Br-].COC[N+]1(C)CCCC1","-","-","AUTO_1168","-","A132545","-","-","-","-","-","235.0","Celsius","-","-","-","-","235.0","Celsius","-","-","","-",""
"CC1=NC(C#N)=C([N-]1)C#N.CCCCCCCCN1C=C[N+](C)=C1","-","-","AUTO_1169","-","A139517","16586524","-","-","-","-","235.0","Celsius","-","-","-","-","235.0","Celsius","-","-","","-",""
"C[N+](C)(C)C.O=N(=O)C1=NN=C([N-]1)N(=O)=O","-","-","AUTO_1170","-","A139567","24888334","-","-","-","-","235.0","Celsius","-","-","-","-","235.0","Celsius","-","-","","-",""
"CC([O-])=O.C1C[NH2+]C2=NCCCN2C1","-","-","AUTO_1172","-","A139567","24888334","-","","-","-","235.0","Celsius","-","-","-","-","235.0","Celsius","-","-","","-",""
"F[P-](F)(F)(F)(F)F.CCN1C=C[N+](CCCS(Cl)(=O)=O)=C1","-","-","AUTO_1173","-","A139567","24888334","-","","-","-","235.0","Celsius","-","-","-","-","235.0","Celsius","-","-","","-",""
"CCCOCN1C=C[N+](COCCC)=C1.FC(F)(F)S(=O)(=O)[N-]S(=O)(=O)C(F)(F)F","-","-","AUTO_1174","-","A132545","-","-","-","-","-","235.0","Celsius","-","-","-","-","235.0","Celsius","-","-","","-",""
"FC(F)(F)S(=O)(=O)[N-]S(=O)(=O)C(F)(F)F.CCCCCCCCOCN1C=C[N+](COCCCCCCCC)=C1","-","-","AUTO_1175","-","A139507","15252794","-","-","-","-","235.0","Celsius","-","-","-","-","235.0","Celsius","-","-","","-",""
"[O-]S(=O)(=O)NC1CCCCC1.CCCCCCCCCCCCCCCC[N+]1=CC=CC=C1","-","-","AUTO_1176","-","A139507","15252794","-","-","-","-","235.0","Celsius","-","-","-","-","235.0","Celsius","-","-","","-",""
"CCCCN1C=C[N+](C)=C1.BrC1=NC(C#N)=C([N-]1)C#N","-","-","AUTO_1177","-","A132545","-","-","-","-","-","235.0","Celsius","-","-","-","-","235.0","Celsius","-","-","","-",""
"CCCCN1C=C[N+](C)=C1.C=CC1=NC(C#N)=C([N-]1)C#N","-","-","AUTO_1178","-","A139515","16389616","-","-","-","-","235.0","Celsius","-","-","-","-","235.0","Celsius","-","-","","-",""
"C[N+](C)(C)CCO.CC(OC1=CC=C(Cl)C=C1Cl)C([O-])=O","-","-","AUTO_1180","-","A132545","-","-","-","-","-","235.0","Celsius","-","-","-","-","235.0","Celsius","-","-","","-",""
"[O-]S(=O)(=O)C(F)(F)F.CCCO[C@H]1CO[C@H](C[N+]2=CC=CC=C2)[C@H]1OCCC","-","-","AUTO_1181","-","A132545","-","-","-","-","-","235.0","Celsius","-","-","-","-","235.0","Celsius","-","-","","-",""
"[O-]C(=O)[C@@H]1CCCN1.CN1C=C[N+](CCO)=C1","-","-","AUTO_1182","-","A132545","-","-","-","-","-","235.62","Celsius","-","-","-","-","235.62","Celsius","-","-","","-",""
"[Br-].CCCC[N+]1(C)CCOCC1","-","-","AUTO_1183","-","A132545","-","-","-","-","-","236.0","Celsius","-","-","-","-","236.0","Celsius","-","-","","-",""
"[Br-].CC[N+](C)(CC)CCOC","-","-","AUTO_1184","-","A139542","20135648","-","-","-","-","236.0","Celsius","-","-","-","-","236.0","Celsius","-","-","","-",""
"[Br-].CCCC[N+](C)(CC)CC","-","-","AUTO_1185","-","A139510","15584076","-","-","-","-","236.0","Celsius","-","-","-","-","236.0","Celsius","-","-","","-",""
"F[P-](F)(F)(F)(F)F.FC(F)(F)CC[N+]1=CC=NC=C1","-","-","AUTO_1189","-","A139510","15584076","-","","-","-","236.0","Celsius","-","-","-","-","236.0","Celsius","-","-","","-",""
"[O-]Cl(=O)(=O)=O.CN1C=[N+](CC#C)C=N1","-","-","AUTO_1190","-","A139515","16389616","-","-","-","-","236.0","Celsius","-","-","-","-","236.0","Celsius","-","-","","-",""
"N#C[N-]C#N.C[N+](C)(N)CCO","-","-","AUTO_1191","-","A140250","-","-","-","-","-","236.0","Celsius","-","-","-","-","236.0","Celsius","-","-","","-",""
"COC1=C(C([O-])=O)C(Cl)=CC=C1Cl.CCCCCCCCCCCC[N+](C)(C)CCOC1=CC=CC=C1","-","-","AUTO_1192","-","A139511","15762697","-","-","-","-","236.0","Celsius","-","-","-","-","236.0","Celsius","-","-","","-",""
"CC([O-])=O.CN1C=C[N+](C)=C1","-","-","AUTO_1195","-","A140250","-","-","-","-","-","237.0","Celsius","-","-","-","-","237.0","Celsius","-","-","","-",""
"CCCCN1C=C[N+](C)=C1.COC(=O)[C@H](CC(C)C)[N-]S(=O)(=O)C(F)(F)F","-","-","AUTO_1196","-","A139519","16855692","-","-","-","-","237.0","Celsius","-","-","-","-","237.0","Celsius","-","-","","-",""
"CS([O-])(=O)=O.CCCCCCCCCCCCOC(=O)C[N+](C)(C)C","-","-","AUTO_1197","-","A140250","-","-","-","-","-","237.0","Celsius","-","-","-","-","237.0","Celsius","-","-","","-",""
"CC[NH+](C(C)C)C(C)C.[O-]C(=O)C(=CC1=CC=C(O)C=C1)C#N","-","-","AUTO_1199","-","A139592","32006830","-","","-","-","237.5","Celsius","-","-","-","-","237.5","Celsius","-","-","","-",""
"[N-]1C=C(N=N1)C2=CC=CC=C2.CCCC[P+](CCCC)(CCCC)CCCC","-","-","AUTO_1202","-","A140250","-","-","-","-","-","238.0","Celsius","-","-","-","-","238.0","Celsius","-","-","","-",""
"C=CC1=NC(C#N)=C([N-]1)C#N.CCCCCCCCN1C=C[N+](C)=C1","-","-","AUTO_1205","-","A139567","24888334","-","-","-","-","238.0","Celsius","-","-","-","-","238.0","Celsius","-","-","","-",""
"NC1=NC(C#N)=C([N-]1)C#N.CCCCCCCCN1C=C[N+](C)=C1","-","-","AUTO_1206","-","A139567","24888334","-","-","-","-","238.0","Celsius","-","-","-","-","238.0","Celsius","-","-","","-",""
"CCCCN1C=C[N+](C)=C1.CCCC1=NC(C#N)=C([N-]1)C#N","-","-","AUTO_1207","-","A139567","24888334","-","-","-","-","238.0","Celsius","-","-","-","-","238.0","Celsius","-","-","","-",""
"C[C@H](O)C([O-])=O.CCCCCCCCCCCCCCCCOC(=O)C[N+](C)(C)C","-","-","AUTO_1208","-","A140250","-","-","-","-","-","238.0","Celsius","-","-","-","-","238.0","Celsius","-","-","","-",""
"CCCC[N+]1=CN(C)C=C1.O=N(=O)C1=NN=C([N-]1)N(=O)=O","-","-","AUTO_1214","-","A140250","-","-","-","-","-","239.0","Celsius","-","-","-","-","239.0","Celsius","-","-","","-",""
"CN1C=[N+](C)C=N1.O=N(=O)C1=NC(=N[N-]1)N(=O)=O","-","-","AUTO_1215","-","A139517","16586524","-","-","-","-","239.0","Celsius","-","-","-","-","239.0","Celsius","-","-","","-",""
"CC[N+](CC)(CC)CC.[O-]S(=O)(=O)CCCN1CCOCC1","-","-","AUTO_1218","-","A139579","26885778","-","-","-","-","239.0","Celsius","-","-","-","-","239.0","Celsius","-","-","","-",""
"CCCC[N+]1=CN(C)C=C1.O=N(=O)C1=NC(C#N)=C([N-]1)C#N","-","-","AUTO_1219","-","A139579","26885778","-","-","-","-","239.0","Celsius","-","-","-","-","239.0","Celsius","-","-","","-",""
"O=N(=O)C1=NC(C#N)=C([N-]1)C#N.CCCC[P+](CCCC)(CCCC)CCCC","-","-","AUTO_1220","-","A140250","-","-","-","-","-","239.0","Celsius","-","-","-","-","239.0","Celsius","-","-","","-",""
"[O-]S(=O)(=O)C(F)(F)F.S(C1=CC=CC=C1)C2=CC=C(C=C2)[S+](C3=CC=CC=C3)C4=CC=CC=C4","-","-","AUTO_1221","-","A140250","-","-","-","-","-","240.0","Celsius","-","-","-","-","240.0","Celsius","-","-","","-",""
"COC1=C(/C=C/C([O-])=O)C=CC=C1.CCCCCCCCCCCCCC[N+]1=CN(C)C=C1","-","-","AUTO_1224","-","A140250","-","-","-","-","-","240.0","Celsius","-","-","-","-","240.0","Celsius","-","-","","-",""
"COC1=C(/C=C/C([O-])=O)C=CC=C1.CCCCCCCCCCCC[N+]1=CN(C)C=C1","-","-","AUTO_1225","-","A139567","24888334","-","-","-","-","240.0","Celsius","-","-","-","-","240.0","Celsius","-","-","","-",""
"FC(F)(F)S(=O)(=O)[N-]S(=O)(=O)C(F)(F)F.CCCCOCN1C=C[N+](COCCCC)=C1","-","-","AUTO_1226","-","A139567","24888334","-","-","-","-","240.0","Celsius","-","-","-","-","240.0","Celsius","-","-","","-",""
"FC(F)(F)S(=O)(=O)[N-]S(=O)(=O)C(F)(F)F.CCCCCCCOCN1C=C[N+](COCCCCCCC)=C1","-","-","AUTO_1227","-","A139567","24888334","-","-","-","-","240.0","Celsius","-","-","-","-","240.0","Celsius","-","-","","-",""
"C[N+]1(C)CCCCC1.COC1=C(C([O-])=O)C(Cl)=CC=C1Cl","-","-","AUTO_1228","-","A139567","24888334","-","-","-","-","240.0","Celsius","-","-","-","-","240.0","Celsius","-","-","","-",""
"CCCCN1C=C[N+](C)=C1.CCCCCCCC1=NC(C#N)=C([N-]1)C#N","-","-","AUTO_1230","-","A139507","15252794","-","-","-","-","240.0","Celsius","-","-","-","-","240.0","Celsius","-","-","","-",""
"CCCCCCCCN1C=C[N+](C)=C1.CCCCCCC1=NC(C#N)=C([N-]1)C#N","-","-","AUTO_1231","-","A139507","15252794","-","-","-","-","240.0","Celsius","-","-","-","-","240.0","Celsius","-","-","","-",""
"CCCCCCCCN1C=C[N+](C)=C1.CCCCCCCCC1=NC(C#N)=C([N-]1)C#N","-","-","AUTO_1232","-","A139570","25328142","-","-","-","-","240.0","Celsius","-","-","-","-","240.0","Celsius","-","-","","-",""
"CCCCN1C=C[N+](C)=C1.CCC1=NC(C#N)=C([N-]1)C#N","-","-","AUTO_1233","-","A139570","25328142","-","-","-","-","240.0","Celsius","-","-","-","-","240.0","Celsius","-","-","","-",""
"[O-]C#N.CC[N+](C)(CC)CC","-","-","AUTO_1234","-","A140250","-","-","-","-","-","240.0","Celsius","-","-","-","-","240.0","Celsius","-","-","","-",""
"CS([O-])(=O)=O.CCCCCCCC[NH+]1C[Si](C)(C)O[Si](C)(C)C1","-","-","AUTO_1235","-","A140250","-","-","","-","-","240.0","Celsius","-","-","-","-","240.0","Celsius","-","-","","-",""
"[O-]S(O)(=O)=O.C[Si]1(C)C[NH+](C[Si](C)(C)O1)C2CCCCC2","-","-","AUTO_1236","-","A140250","-","-","","-","-","240.0","Celsius","-","-","-","-","240.0","Celsius","-","-","","-",""
"[O-]C=O.C[N+](C)(C)CCO","-","-","AUTO_1238","-","A139517","16586524","-","-","-","-","241.0","Celsius","-","-","-","-","241.0","Celsius","-","-","","-",""
"[O-]Cl(=O)(=O)=O.C[NH+]1C=CN=C1","-","-","AUTO_1239","-","A140250","-","-","","-","-","241.0","Celsius","-","-","-","-","241.0","Celsius","-","-","","-",""
"CCCC[N+]1=CN(C)C=C1.O=N(=O)C1=C(N=C[N-]1)N(=O)=O","-","-","AUTO_1242","-","A139540","19902435","-","-","-","-","241.0","Celsius","-","-","-","-","241.0","Celsius","-","-","","-",""
"CCCC[N+]1=CN(C)C=C1.N#CC1(O[B-]2(OC1(C#N)C#N)OC(C#N)(C#N)C(O2)(C#N)C#N)C#N","-","-","AUTO_1243","-","A140250","-","-","-","-","-","241.5","Celsius","-","-","-","-","241.5","Celsius","-","-","","-",""
"[Br-].CCCCCCCCCCCCCCOC1=CC=C(C=C1)C(=O)NC2=CC=C(C=C2)N3C=C[N+](CCCC)=C3","-","-","AUTO_1248","-","A140250","-","-","-","-","-","242.0","Celsius","-","-","-","-","242.0","Celsius","-","-","","-",""
"[BH3-]C#N.CN1C=C[N+](CC=C)=C1","-","-","AUTO_1249","-","A140250","-","-","-","-","-","242.0","Celsius","-","-","-","-","242.0","Celsius","-","-","","-",""
"[O-]S(=O)(=O)C(F)(F)F.CO[C@H]1O[C@H](C[N+]2=CC=CC=C2)[C@@H](OC)[C@H](OC)[C@H]1OC","-","-","AUTO_1250","-","A140250","-","-","-","-","-","242.0","Celsius","-","-","-","-","242.0","Celsius","-","-","","-",""
"CC1=CC=C(C=C1)S([O-])(=O)=O.CO[C@@H]1O[C@H](C[N+]2=CC=CC=C2)[C@@H](OC)[C@H](OC)[C@H]1OC","-","-","AUTO_1251","-","A139565","24737218","-","-","-","-","242.0","Celsius","-","-","-","-","242.0","Celsius","-","-","","-",""
"CC([O-])=O.CCN1C=C(C)[N+](CC)=C1","-","-","AUTO_1253","-","A140250","-","-","-","-","-","242.4","Celsius","-","-","-","-","242.4","Celsius","-","-","","-",""
"CS([O-])(=O)=O.CCCCCC[NH+]1C[Si](C)(C)O[Si](C)(C)C1","-","-","AUTO_1254","-","A140250","-","-","","-","-","242.5","Celsius","-","-","-","-","242.5","Celsius","-","-","","-",""
"[O-]Cl(=O)(=O)=O.NN1C=N[N+](CCCS(F)(F)(F)(F)F)=C1","-","-","AUTO_1255","-","A140250","-","-","-","-","-","242.7","Celsius","-","-","-","-","242.7","Celsius","-","-","","-",""
"C[N+](C)(C)CCO.OC(=O)CCC([O-])=O","-","-","AUTO_1256","-","A139569","25242504","-","-","-","-","242.9","Celsius","-","-","-","-","242.9","Celsius","-","-","","-",""
"[Br-].BrC1=CC=C(C=C1)C(=O)C[N+]2=CC=CC=C2","-","-","AUTO_1257","-","A139567","24888334","-","-","-","-","243.0","Celsius","-","-","-","-","243.0","Celsius","-","-","","-",""
"CCCCN1C=C[N+](C)=C1.CCCCCCCCCCCC1=NC(C#N)=C([N-]1)C#N","-","-","AUTO_1261","-","A139553","21993539","-","-","-","-","243.0","Celsius","-","-","-","-","243.0","Celsius","-","-","","-",""
"CC(=O)NCC([O-])=O.CCCC[N+]1(C)CCOCC1","-","-","AUTO_1262","-","A140250","-","-","-","-","-","243.0","Celsius","-","-","-","-","243.0","Celsius","-","-","","-",""
"CC(=O)NCC([O-])=O.CCCCCCCCCC[N+]1(C)CCOCC1","-","-","AUTO_1263","-","A140250","-","-","-","-","-","243.0","Celsius","-","-","-","-","243.0","Celsius","-","-","","-",""
"CS([O-])(=O)=O.C[Si]1(C)C[NH+](C[Si](C)(C)O1)C2CCCCC2","-","-","AUTO_1264","-","A140250","-","-","","-","-","243.0","Celsius","-","-","-","-","243.0","Celsius","-","-","","-",""
"[Cl-].CN1C=C[N+](CCC(O)=O)=C1","-","-","AUTO_1266","-","A140250","-","-","-","-","-","243.25","Celsius","-","-","-","-","243.25","Celsius","-","-","","-",""
"C[N+](C)(C)CCO.OC(=O)CCCC([O-])=O","-","-","AUTO_1268","-","A139569","25242504","-","-","-","-","243.3","Celsius","-","-","-","-","243.3","Celsius","-","-","","-",""
"CC1=[NH+]C=CC=C1.[O-]C(=O)C(=CC1=CC=C(O)C=C1)C#N","-","-","AUTO_1269","-","A139592","32006830","-","","-","-","243.5","Celsius","-","-","-","-","243.5","Celsius","-","-","","-",""