"SMILES","CASRN","EXTERNALID","N","NAME","ARTICLEID","PUBMEDID","PAGE","TABLE","Melting Point","UNIT {Melting Point}","Decomposition","UNIT {Decomposition}","Glass-transition temperature (Tg)","UNIT {Glass-transition temperature (Tg)}","Melting Point {measured, converted}","UNIT {Melting Point}","Decomposition {measured, converted}","UNIT {Decomposition}","Glass-transition temperature (Tg) {measured, converted}","UNIT {Glass-transition temperature (Tg)}","weight loss","UNIT {weight loss}","Solvent"
"CCCC[N+]1=C2CCCN2CCC1.C(F)(F)(F)S(=O)(=O)[N-]S(=O)(=O)C(F)(F)F","-","-","AUTO_1880","C2017_A0048","A132065","-","-","-","24.0","Celsius","-","-","-","-","24.0","Celsius","-","-","-","-","","-",""
"CC[N+]1=C2CCCCCN2CCC1.C(F)(F)(F)S(=O)(=O)[N-]S(=O)(=O)C(F)(F)F","-","-","AUTO_1881","C1223_A0048","A132065","-","-","-","29.0","Celsius","-","-","-","-","29.0","Celsius","-","-","-","-","","-",""
"COCCOCC[N+](CCOCCOC)(C)C.[Cl-]","-","-","AUTO_1882","C2013_A0033","A132065","-","-","-","38.0","Celsius","-","-","-","-","38.0","Celsius","-","-","-","-","","-",""
"COCCOCC[N+](CCOCCOC)(CCOCCOC)CC.[Br-]","-","-","AUTO_1883","C2014_A0004","A132065","-","-","-","44.0","Celsius","-","-","-","-","44.0","Celsius","-","-","-","-","","-",""
"C1(=CC=CC=C1)[S+](C2=CC=CC=C2)C3=CC=CC=C3.C(F)(F)(F)S(=O)(=O)[N-]S(=O)(=O)C(F)(F)F","-","-","AUTO_1884","C2010_A0048","A132065","-","-","-","92.0","Celsius","-","-","-","-","92.0","Celsius","-","-","-","-","","-",""
"C1(=CC=CC=C1)[S+](C2=CC=CC=C2)C3=CC=CC=C3.FC(F)(F)C(F)(F)S(=O)(=O)[N-]S(=O)(=O)C(F)(F)C(F)(F)F","-","-","AUTO_1885","C2010_A0067","A132065","-","-","-","36.0","Celsius","-","-","-","-","36.0","Celsius","-","-","-","-","","-",""
"C1(=CC=CC=C1)[S+](C2=C(C=CC=C2)OC3=CC=CC=C3)C4=CC=CC=C4.C(F)(F)(F)S(=O)(=O)[N-]S(=O)(=O)C(F)(F)F","-","-","AUTO_1886","C2011_A0048","A132065","-","-","-","63.0","Celsius","-","-","-","-","63.0","Celsius","-","-","-","-","","-",""
"C1(=CC=CC=C1)[S+](C2=C(C=CC=C2)S(=O)(=O)C3=CC=CC=C3)C4=CC=CC=C4.C(F)(F)(F)S(=O)(=O)[N-]S(=O)(=O)C(F)(F)F","-","-","AUTO_1887","C2012_A0048","A132065","-","-","-","105.0","Celsius","-","-","-","-","105.0","Celsius","-","-","-","-","","-",""
"C1(=CC=CC=C1)[S+](C2=C(C=CC=C2)S(=O)(=O)C3=CC=CC=C3)C4=CC=CC=C4.FC(F)(F)C(F)(F)S(=O)(=O)[N-]S(=O)(=O)C(F)(F)C(F)(F)F","-","-","AUTO_1888","C2012_A0067","A132065","-","-","-","132.0","Celsius","-","-","-","-","132.0","Celsius","-","-","-","-","","-",""
"CC[N+](CC)(CC)CC.FC1=C(C(=C(C(=C1[B-](F)(F)F)F)F)F)F","-","-","AUTO_1889","C0687_A0328","A132065","-","-","-","55.0","Celsius","-","-","-","-","55.0","Celsius","-","-","-","-","","-",""
"CC[N+]=1C=CN(C1)C.FC1=C(C(=C(C(=C1[B-](F)(F)F)F)F)F)F","-","-","AUTO_1890","C0460_A0328","A132065","-","-","-","40.0","Celsius","-","-","-","-","40.0","Celsius","-","-","-","-","","-",""
"CCCC[N+]=1C=CN(C1)C.FC1=C(C(=C(C(=C1[B-](F)(F)F)F)F)F)F","-","-","AUTO_1891","C0505_A0328","A132065","-","-","-","35.0","Celsius","-","-","-","-","35.0","Celsius","-","-","-","-","","-",""
"CCCCCCCC[N+]=1C=CN(C1)C.FC1=C(C(=C(C(=C1[B-](F)(F)F)F)F)F)F","-","-","AUTO_1892","C0290_A0328","A132065","-","-","-","10.0","Celsius","-","-","-","-","10.0","Celsius","-","-","-","-","","-",""
"CCCC[N+]=1C=CN(C1C)C.FC1=C(C(=C(C(=C1[B-](F)(F)F)F)F)F)F","-","-","AUTO_1893","C1098_A0328","A132065","-","-","-","35.0","Celsius","-","-","-","-","35.0","Celsius","-","-","-","-","","-",""
"CCCC[N+]=1C=CN(C1)C.COC1=C(C(=C(C(=C1F)F)[B-](F)(F)F)F)F","-","-","AUTO_1894","C0505_A0329","A132065","-","-","-","9.0","Celsius","-","-","-","-","9.0","Celsius","-","-","-","-","","-",""
"CCCC[N+]=1C=CN(C1)C.C(CC)OC1=C(C(=C(C(=C1F)F)[B-](F)(F)F)F)F","-","-","AUTO_1895","C0505_A0330","A132065","-","-","-","-3.0","Celsius","-","-","-","-","-3.0","Celsius","-","-","-","-","","-",""
"CCCC[N+]=1C=CN(C1)C.C(C)(C)(C)OC1=C(C(=C(C(=C1F)F)[B-](F)(F)F)F)F","-","-","AUTO_1896","C0505_A0331","A132065","-","-","-","33.0","Celsius","-","-","-","-","33.0","Celsius","-","-","-","-","","-",""
"CCCC[N+]=1C=CN(C1)C.C(C1=CC=CC=C1)OC2=C(C(=C(C(=C2F)F)[B-](F)(F)F)F)F","-","-","AUTO_1897","C0505_A0333","A132065","-","-","-","22.0","Celsius","-","-","-","-","22.0","Celsius","-","-","-","-","","-",""
"CCCC[N+]=1C=CN(C1)C.O(C1=CC=CC=C1)C2=C(C(=C(C(=C2F)F)[B-](F)(F)F)F)F","-","-","AUTO_1898","C0505_A0334","A132065","-","-","-","78.0","Celsius","-","-","-","-","78.0","Celsius","-","-","-","-","","-",""
"CCCC[N+]=1C=CN(C1)C.C12(C(CC(CC1)C2(C)C)OC3=C(C(=C(C(=C3F)F)[B-](F)(F)F)F)F)C","-","-","AUTO_1899","C0505_A0336","A132065","-","-","-","70.0","Celsius","-","-","-","-","70.0","Celsius","-","-","-","-","","-",""
"[NH+]12CCCCCC1=NCCC2.CC1=CC(=O)[N-]S(=O)(=O)O1","-","-","AUTO_1900","C2018_A0049","A132065","-","-","-","101.0","Celsius","-","-","-","-","101.0","Celsius","-","-","-","-","","-",""
"CN(C(=[NH2+])N(C)C)C.C(C)N(C([O-])=O)CC","-","-","AUTO_1902","C1490_A0338","A132065","-","-","-","64.0","Celsius","-","-","-","-","64.0","Celsius","-","-","-","-","","-",""
"CN(C(=[NH2+])N(C)C)C.C(C)(C)N(C([O-])=O)C(C)C","-","-","AUTO_1903","C1490_A0339","A132065","-","-","-","39.0","Celsius","-","-","-","-","39.0","Celsius","-","-","-","-","","-",""
"CN(C(=[NH2+])N(C)C)C.CC1=CC(=O)[N-]S(=O)(=O)O1","-","-","AUTO_1904","C1490_A0049","A132065","-","-","-","72.0","Celsius","-","-","-","-","72.0","Celsius","-","-","-","-","","-",""
"CN(C(=[NH2+])N(C)C)C.C(CCC)N(C([O-])=O)C","-","-","AUTO_1905","C1490_A0337","A132065","-","-","-","54.0","Celsius","-","-","-","-","54.0","Celsius","-","-","-","-","","-",""
"CCCCCCCCCCCCCCCC[N+](C)(C)C.ClC1=CC(=C(OCC(=O)[O-])C=C1)C","-","-","AUTO_1906","C2022_A0340","A132065","-","-","-","57.0","Celsius","-","-","-","-","57.0","Celsius","-","-","-","-","","-",""
"CCCCCCCCCCCCCCCC[N+](C)(C)C.ClC1=C(OCC(=O)[O-])C=CC(=C1)Cl","-","-","AUTO_1907","C2022_A0341","A132065","-","-","-","74.0","Celsius","-","-","-","-","74.0","Celsius","-","-","-","-","","-",""
"CCCCCCCCCCCCCCCC[N+](C)(C)C.ClC=1C(=C(C(=O)[O-])C(=CC1)Cl)OC","-","-","AUTO_1908","C2022_A0342","A132065","-","-","-","101.0","Celsius","-","-","-","-","101.0","Celsius","-","-","-","-","","-",""
"CCCCCCCCCCCCCCCCCC[N+](C)(C)C.ClC1=CC(=C(OCC(=O)[O-])C=C1)C","-","-","AUTO_1909","C2023_A0340","A132065","-","-","-","68.0","Celsius","-","-","-","-","68.0","Celsius","-","-","-","-","","-",""
"CCCCCCCCCCCCCCCCCC[N+](C)(C)C.ClC1=C(OCC(=O)[O-])C=CC(=C1)Cl","-","-","AUTO_1910","C2023_A0341","A132065","-","-","-","55.0","Celsius","-","-","-","-","55.0","Celsius","-","-","-","-","","-",""
"CCCCCCCCCCCCCCCCCC[N+](C)(C)C.ClC=1C(=C(C(=O)[O-])C(=CC1)Cl)OC","-","-","AUTO_1911","C2023_A0342","A132065","-","-","-","76.0","Celsius","-","-","-","-","76.0","Celsius","-","-","-","-","","-",""
"CCCCCCCCCCCCCCCCCCCCCC[N+](C)(C)C.ClC1=CC(=C(OCC(=O)[O-])C=C1)C","-","-","AUTO_1912","C2024_A0340","A132065","-","-","-","63.0","Celsius","-","-","-","-","63.0","Celsius","-","-","-","-","","-",""
"CCCCCCCCCCCCCCCCCCCCCC[N+](C)(C)C.ClC1=C(OCC(=O)[O-])C=CC(=C1)Cl","-","-","AUTO_1913","C2024_A0341","A132065","-","-","-","61.0","Celsius","-","-","-","-","61.0","Celsius","-","-","-","-","","-",""
"CCCCCCCCCCCCCCCCCCCCCC[N+](C)(C)C.ClC=1C(=C(C(=O)[O-])C(=CC1)Cl)OC","-","-","AUTO_1914","C2024_A0342","A132065","-","-","-","72.0","Celsius","-","-","-","-","72.0","Celsius","-","-","-","-","","-",""
"C=CN1C=C[N+](=C1)CC.FS(=O)(=O)[N-]S(F)(=O)=O","-","-","AUTO_1915","C0639_A0027","A132065","-","-","-","-23.0","Celsius","-","-","-","-","-23.0","Celsius","-","-","-","-","","-",""
"C=CCN1C=C[N+](=C1)C.FS(=O)(=O)[N-]S(F)(=O)=O","-","-","AUTO_1916","C0316_A0027","A132065","-","-","-","-3.0","Celsius","-","-","-","-","-3.0","Celsius","-","-","-","-","","-",""
"C=CN1C=C[N+](=C1)CC.C(F)(F)(F)S(=O)(=O)[N-]S(=O)(=O)C(F)(F)F","-","-","AUTO_1917","C0639_A0048","A132065","-","-","-","4.0","Celsius","-","-","-","-","4.0","Celsius","-","-","-","-","","-",""
"NC(=[NH2+])N.FC(C(C(C(F)(F)F)(F)F)(F)F)(S(=O)(=O)[O-])F","-","-","AUTO_1918","C2030_A0079","A132065","-","-","-","186.0","Celsius","-","-","-","-","186.0","Celsius","-","-","-","-","","-",""
"C(CCCCCCCC)[N+]1=CN=CC=C1.F[B-](F)(F)F","-","-","AUTO_1919","C2031_A0020","A132065","-","-","-","48.0","Celsius","-","-","-","-","48.0","Celsius","-","-","-","-","","-",""
"C[N+]1=CN=CC=C1.C(F)(F)(F)S(=O)(=O)[N-]S(=O)(=O)C(F)(F)F","-","-","AUTO_1920","C2032_A0048","A132065","-","-","-","-58.0","Celsius","-","-","-","-","-58.0","Celsius","-","-","-","-","","-",""
"C(C)[N+]1=CN=CC=C1.C(F)(F)(F)S(=O)(=O)[N-]S(=O)(=O)C(F)(F)F","-","-","AUTO_1921","C2033_A0048","A132065","-","-","-","47.0","Celsius","-","-","-","-","47.0","Celsius","-","-","-","-","","-",""
"C(CCCCCCCC)[N+]1=CN=CC=C1.C(F)(F)(F)S(=O)(=O)[N-]S(=O)(=O)C(F)(F)F","-","-","AUTO_1922","C2031_A0048","A132065","-","-","-","-52.0","Celsius","-","-","-","-","-52.0","Celsius","-","-","-","-","","-",""
"C(CCC)[P+](CCCC)(CCCC)CCCC.C(C=CC1=CC(OC)=C(O)C=C1)(=O)[O-]","-","-","AUTO_1923","C1199_A0326","A132065","-","-","-","115.0","Celsius","-","-","-","-","115.0","Celsius","-","-","-","-","","-",""
"CCCC[N+](CCCC)(CCCC)CCCC.C(C=CC1=CC(OC)=C(O)C=C1)(=O)[O-]","-","-","AUTO_1924","C0297_A0326","A132065","-","-","-","119.0","Celsius","-","-","-","-","119.0","Celsius","-","-","-","-","","-",""
"C(CCC)[P+](CCCC)(CCCC)CCCC.C(C=CC1=CC=C(C=C1)O)(=O)[O-]","-","-","AUTO_1925","C1199_A0344","A132065","-","-","-","145.0","Celsius","-","-","-","-","145.0","Celsius","-","-","-","-","","-",""
"CCCC[N+](CCCC)(CCCC)CCCC.C(C=CC1=CC=C(C=C1)O)(=O)[O-]","-","-","AUTO_1926","C0297_A0344","A132065","-","-","-","150.0","Celsius","-","-","-","-","150.0","Celsius","-","-","-","-","","-",""
"CCC[N+](CC)(C)C.Br[Al-](Br)(Br)Br","-","-","AUTO_1927","C0231_A0345","A132065","-","-","-","17.0","Celsius","-","-","-","-","17.0","Celsius","-","-","-","-","","-",""
"CCCC[N+](CCC)(C)C.Br[Al-](Br)(Br)Br","-","-","AUTO_1928","C0156_A0345","A132065","-","-","-","65.0","Celsius","-","-","-","-","65.0","Celsius","-","-","-","-","","-",""
"CCCC[N+](CC)(CC)C.Br[Al-](Br)(Br)Br","-","-","AUTO_1929","C0981_A0345","A132065","-","-","-","91.0","Celsius","-","-","-","-","91.0","Celsius","-","-","-","-","","-",""
"CCCCC[N+](CC)(CC)CC.Br[Al-](Br)(Br)Br","-","-","AUTO_1930","C1488_A0345","A132065","-","-","-","47.0","Celsius","-","-","-","-","47.0","Celsius","-","-","-","-","","-",""
"CCCCC[P+](CC)(CC)CC.Br[Al-](Br)(Br)Br","-","-","AUTO_1931","C0161_A0345","A132065","-","-","-","35.0","Celsius","-","-","-","-","35.0","Celsius","-","-","-","-","","-",""
"CCCC[N+]1(C)CCCC1.FC(F)(F)C(F)(F)S(=O)(=O)[N-]S(=O)(=O)C(F)(F)C(F)(F)F","-","-","AUTO_1932","C0315_A0067","A132065","-","-","-","9.0","Celsius","-","-","-","-","9.0","Celsius","-","-","-","-","","-",""
"CCC[N+]1(C)CCCC1.FC(F)(F)C(F)(F)S(=O)(=O)[N-]S(=O)(=O)C(F)(F)C(F)(F)F","-","-","AUTO_1933","C0152_A0067","A132065","-","-","-","6.0","Celsius","-","-","-","-","6.0","Celsius","-","-","-","-","","-",""
"C[N+]1(C)CCCC1.FC(F)(F)C(F)(F)S(=O)(=O)[N-]S(=O)(=O)C(F)(F)C(F)(F)F","-","-","AUTO_1934","C0411_A0067","A132065","-","-","-","133.0","Celsius","-","-","-","-","133.0","Celsius","-","-","-","-","","-",""
"CCCCCCCCCCCCCC[P+](CCCCCC)(CCCCCC)CCCCCC.C(F)(F)(F)S(=O)(=O)[N-]S(=O)(=O)C(F)(F)F","-","-","AUTO_1935","C1119_A0048","A132065","-","-","-","33.0","Celsius","-","-","-","-","33.0","Celsius","-","-","-","-","","-",""
"C(CCC)[N+]1=C(C=CC=C1)C.F[B-](F)(F)F","-","-","AUTO_1936","C1288_A0020","A132065","-","-","-","28.0","Celsius","-","-","-","-","28.0","Celsius","-","-","-","-","","-",""
"CC[N+]=1C=CN(C1)C.S(=O)(=O)(OCCCCCCCC)[O-]","-","-","AUTO_1937","C0460_A0114","A132065","-","-","-","10.0","Celsius","-","-","-","-","10.0","Celsius","-","-","-","-","","-",""
"C(CCC)[N+]1=CC(=CC=C1)C.FC(S(=O)(=O)[O-])(F)F","-","-","AUTO_1938","C1289_A0084","A132065","-","-","-","30.0","Celsius","-","-","-","-","30.0","Celsius","-","-","-","-","","-",""
"C(C)[N+]1=CC(=CC=C1)C.C(F)(F)(F)S(=O)(=O)[N-]S(=O)(=O)C(F)(F)F","-","-","AUTO_1939","C1187_A0048","A132065","-","-","-","-1.0","Celsius","-","-","-","-","-1.0","Celsius","-","-","-","-","","-",""
"C1CCC2=C([NH2+]1)C=CC=C2.[N+](=O)([O-])[O-]","-","-","AUTO_1940","C2097_A0090","A132065","-","-","-","123.0","Celsius","-","-","-","-","123.0","Celsius","-","-","-","-","","-",""
"CCCCCCC[N+](CCCCCCC)(CCCCCC)CCCCCC.[I-]","-","-","AUTO_1941","C2038_A0069","A132065","-","-","-","100.0","Celsius","-","-","-","-","100.0","Celsius","-","-","-","-","","-",""
"CCCCCC[N+](CCCCCC)(CCCCCC)CCCCCC.[O-]Cl(=O)(=O)=O","-","-","AUTO_1942","C0234_A0051","A132065","-","-","-","110.0","Celsius","-","-","-","-","110.0","Celsius","-","-","-","-","","-",""
"CCCCCCC[N+](CCCCCCC)(CCCCCCC)CCCCCCC.[I-]","-","-","AUTO_1943","C0565_A0069","A132065","-","-","-","123.0","Celsius","-","-","-","-","123.0","Celsius","-","-","-","-","","-",""
"CCCCC[N+](CCCCC)(CCCCC)CCCCC.[S-]C#N","-","-","AUTO_1944","C0832_A0015","A132065","-","-","-","50.0","Celsius","-","-","-","-","50.0","Celsius","-","-","-","-","","-",""
"CCCCCCC[N+](CCCCCC)(CCCCCC)CCCCCC.[N+](=O)([O-])[O-]","-","-","AUTO_1945","C2039_A0090","A132065","-","-","-","72.0","Celsius","-","-","-","-","72.0","Celsius","-","-","-","-","","-",""
"C(CCC)[N+](CCCC)(CCCC)CCCC.[Br-]","-","-","AUTO_1946","C0297_A0004","A132065","-","-","-","122.0","Celsius","-","-","-","-","122.0","Celsius","-","-","-","-","","-",""
"CCCC[N+](CCCC)(CCCC)CCCC.[N+](=O)([O-])[O-]","-","-","AUTO_1947","C0297_A0090","A132065","-","-","-","119.0","Celsius","-","-","-","-","119.0","Celsius","-","-","-","-","","-",""
"CCCCC[N+](CCCCC)(CCCCC)CCCCC.[Br-]","-","-","AUTO_1948","C0832_A0004","A132065","-","-","-","103.0","Celsius","-","-","-","-","103.0","Celsius","-","-","-","-","","-",""
"CCCC[N+](CCCC)(CCCC)CCCC.[Cl-]","-","-","AUTO_1949","C0297_A0033","A132065","-","-","-","41.0","Celsius","-","-","-","-","41.0","Celsius","-","-","-","-","","-",""
"CCCCCC[N+](CCCCCC)(CCCCCC)CCCCCC.F[B-](F)(F)F","-","-","AUTO_1950","C0234_A0020","A132065","-","-","-","94.0","Celsius","-","-","-","-","94.0","Celsius","-","-","-","-","","-",""
"CCCCCC[N+](CCCCCC)(CCCCCC)CCCCCC.[N+](=O)([O-])[O-]","-","-","AUTO_1951","C0234_A0090","A132065","-","-","-","72.0","Celsius","-","-","-","-","72.0","Celsius","-","-","-","-","","-",""
"CCCCCCC[N+](CCCCCCC)(CCCCCC)CCCCCC.[O-]Cl(=O)(=O)=O","-","-","AUTO_1952","C2038_A0051","A132065","-","-","-","105.0","Celsius","-","-","-","-","105.0","Celsius","-","-","-","-","","-",""
"CCCCCCC[N+](CCCCCCC)(CCCCCCC)CCCCCCC.[O-]Cl(=O)(=O)=O","-","-","AUTO_1953","C0565_A0051","A132065","-","-","-","126.0","Celsius","-","-","-","-","126.0","Celsius","-","-","-","-","","-",""
"CCCCCC[N+](CCCCCC)(CCCCCC)CCCCCC.[Br-]","-","-","AUTO_1954","C0234_A0004","A132065","-","-","-","104.0","Celsius","-","-","-","-","104.0","Celsius","-","-","-","-","","-",""
"CCCCCCC[N+](CCCCCC)(CCCCCC)CCCCCC.[I-]","-","-","AUTO_1955","C2039_A0069","A132065","-","-","-","98.0","Celsius","-","-","-","-","98.0","Celsius","-","-","-","-","","-",""
"CCCCCCC[N+](CCCCCC)(CCCCCC)CCCCCC.[Br-]","-","-","AUTO_1956","C2039_A0004","A132065","-","-","-","108.0","Celsius","-","-","-","-","108.0","Celsius","-","-","-","-","","-",""
"CCCCCCC[N+](CCCCCCC)(CCCCCCC)CCCCCCC.[Br-]","-","-","AUTO_1957","C0565_A0004","A132065","-","-","-","96.0","Celsius","-","-","-","-","96.0","Celsius","-","-","-","-","","-",""
"CCCC[N+](CCC(C)C)(CCC(C)C)CCC(C)C.[Br-]","-","-","AUTO_1958","C2040_A0004","A132065","-","-","-","122.0","Celsius","-","-","-","-","122.0","Celsius","-","-","-","-","","-",""
"CCCCC[N+](CCCCC)(CCCCC)CCCCC.[N+](=O)([O-])[O-]","-","-","AUTO_1959","C0832_A0090","A132065","-","-","-","114.0","Celsius","-","-","-","-","114.0","Celsius","-","-","-","-","","-",""
"CCCCCCC[N+](CCCCCC)(CCCCCC)CCCCCC.[O-]Cl(=O)(=O)=O","-","-","AUTO_1960","C2039_A0051","A132065","-","-","-","103.0","Celsius","-","-","-","-","103.0","Celsius","-","-","-","-","","-",""
"C[NH+](C)C.C(F)(F)(F)S(=O)(=O)[N-]S(=O)(=O)C(F)(F)F","-","-","AUTO_1961","C2041_A0048","A132065","-","-","-","84.0","Celsius","-","-","-","-","84.0","Celsius","-","-","-","-","","-",""
"CCC[N+](CCO)(C)C.[Br-]","-","-","AUTO_1962","C1550_A0004","A132065","-","-","-","99.0","Celsius","-","-","-","-","99.0","Celsius","-","-","-","-","","-",""
"CCCC[N+](C)(C)CCO.[Br-]","-","-","AUTO_1963","C1560_A0004","A132065","-","-","-","86.0","Celsius","-","-","-","-","86.0","Celsius","-","-","-","-","","-",""
"CCCCCC[N+](CCO)(C)C.[Br-]","-","-","AUTO_1964","C1537_A0004","A132065","-","-","-","82.0","Celsius","-","-","-","-","82.0","Celsius","-","-","-","-","","-",""
"C(CCC)[P+](CCCC)(CCCC)CCCC.S(C)(=O)(=O)[O-]","-","-","AUTO_1965","C1199_A0054","A132065","-","-","-","62.0","Celsius","-","-","-","-","62.0","Celsius","-","-","-","-","","-",""
"C(CCCCC)[N+]1=CC(=CC=C1)C.S(=O)(=O)([O-])C1=CC=C(C)C=C1","-","-","AUTO_1966","C1309_A0030","A132065","-","-","-","56.0","Celsius","-","-","-","-","56.0","Celsius","-","-","-","-","","-",""
"CC[N+]=1C=CN(C1)C.C(C)OS(=O)(=O)[O-]","-","-","AUTO_1967","C0460_A0083","A132065","-","-","-","-37.0","Celsius","-","-","-","-","-37.0","Celsius","-","-","-","-","","-",""
"CC[N+]=1C=CN(C1)C.F[P-](F)(F)(F)(F)F","-","-","AUTO_1968","C0460_A0011","A132065","-","-","-","60.0","Celsius","-","-","-","-","60.0","Celsius","-","-","-","-","","-",""
"CC[N+]=1C=CN(C1)C.S(=O)(=O)([O-])C1=CC=C(C)C=C1","-","-","AUTO_1969","C0460_A0030","A132065","-","-","-","50.0","Celsius","-","-","-","-","50.0","Celsius","-","-","-","-","","-",""
"CCCCCCCC[N+]=1C=CN(C1)C.[Cl-]","-","-","AUTO_1970","C0290_A0033","A132065","-","-","-","12.0","Celsius","-","-","-","-","12.0","Celsius","-","-","-","-","","-",""
"CCCCCCCCCC(=O)OCC[N+](COCCCCC)(C)C.FC(C(=O)[O-])(F)F","-","-","AUTO_1971","C1683_A0064","A132065","-","-","-","7.0","Celsius","-","-","-","-","7.0","Celsius","-","-","-","-","","-",""
"CCCCCCCCCCCOC[N+](CCO)(C)C.C(#N)[N-]C#N","-","-","AUTO_1972","C2043_A0056","A132065","-","-","-","10.0","Celsius","-","-","-","-","10.0","Celsius","-","-","-","-","","-",""
"CCCCCCCCCC[N+](CCCCCCCCCC)(C)C.[N+](=O)([O-])[O-]","-","-","AUTO_1973","C0514_A0090","A132065","-","-","-","32.0","Celsius","-","-","-","-","32.0","Celsius","-","-","-","-","","-",""
"CCN1C=C[N+](=C1)CC.C(F)(F)(F)S(=O)(=O)[N-]S(=O)(=O)C(F)(F)F","-","-","AUTO_1974","C0064_A0048","A132065","-","-","-","-11.0","Celsius","-","-","-","-","-11.0","Celsius","-","-","-","-","","-",""
"CCCC[N+]1=CC=C(C=C1)C.S(=O)(=O)([O-])C1=CC=C(C)C=C1","-","-","AUTO_1975","C0845_A0030","A132065","-","-","-","52.0","Celsius","-","-","-","-","52.0","Celsius","-","-","-","-","","-",""
"CCCC[N+]1=CC=C(C=C1)C.C(F)(F)(F)S(=O)(=O)[N-]S(=O)(=O)C(F)(F)F","-","-","AUTO_1976","C0845_A0048","A132065","-","-","-","18.0","Celsius","-","-","-","-","18.0","Celsius","-","-","-","-","","-",""
"CC1=CC(C)=[NH+]C(=C1)C.S(=O)(=O)([O-])C1=CC=C(C)C=C1","-","-","AUTO_1977","C2044_A0030","A132065","-","-","-","131.0","Celsius","-","-","-","-","131.0","Celsius","-","-","-","-","","-",""
"C(CCC)[N+]1=CC(=CC=C1)C.S(=O)(=O)([O-])C1=CC=C(C)C=C1","-","-","AUTO_1978","C1289_A0030","A132065","-","-","-","51.0","Celsius","-","-","-","-","51.0","Celsius","-","-","-","-","","-",""
"CC1=CC=[N+](C=C1)C.S(=O)(=O)([O-])C1=CC=C(C)C=C1","-","-","AUTO_1979","C0067_A0030","A132065","-","-","-","152.0","Celsius","-","-","-","-","152.0","Celsius","-","-","-","-","","-",""
"CCCCCC[N+]=1C=CC=C2C1C=CC=C2.C(F)(F)(F)S(=O)(=O)[N-]S(=O)(=O)C(F)(F)F","-","-","AUTO_1980","C1604_A0048","A132065","-","-","-","44.0","Celsius","-","-","-","-","44.0","Celsius","-","-","-","-","","-",""
"CC[N+]1(C)CCCCC1.C(F)(F)(F)S(=O)(=O)[N-]S(=O)(=O)C(F)(F)F","-","-","AUTO_1981","C0871_A0048","A132065","-","-","-","85.0","Celsius","-","-","-","-","85.0","Celsius","-","-","-","-","","-",""
"CCCC[N+]1(C)CCCCC1.[S-]C#N","-","-","AUTO_1982","C0137_A0015","A132065","-","-","-","31.0","Celsius","-","-","-","-","31.0","Celsius","-","-","-","-","","-",""
"C(CCCCC)[N+]1=CC(=CC=C1)C.FC(S(=O)(=O)[O-])(F)F","-","-","AUTO_1983","C1309_A0084","A132065","-","-","-","65.0","Celsius","-","-","-","-","65.0","Celsius","-","-","-","-","","-",""
"CCCC[N+]1(C)CCCC1.[S-]C#N","-","-","AUTO_1984","C0315_A0015","A132065","-","-","-","22.0","Celsius","-","-","-","-","22.0","Celsius","-","-","-","-","","-",""