"SMILES","CASRN","EXTERNALID","N","NAME","ARTICLEID","PUBMEDID","PAGE","TABLE","Melting Point","UNIT {Melting Point}","Decomposition","UNIT {Decomposition}","Glass-transition temperature (Tg)","UNIT {Glass-transition temperature (Tg)}","Melting Point {measured, converted}","UNIT {Melting Point}","Decomposition {measured, converted}","UNIT {Decomposition}","Glass-transition temperature (Tg) {measured, converted}","UNIT {Glass-transition temperature (Tg)}","weight loss","UNIT {weight loss}","Solvent"
"CCCCCCCCCCCCCCCC[N+](C1CCCCC1)(C)C.[Br-]","-","-","AUTO_1331","C0002_A0004","A132065","-","-","-","141.0","Celsius","-","-","-","-","141.0","Celsius","-","-","-","-","","-",""
"CC1=CC=CC=C1C[N+](C2=CC=CC=C2)(C)C.[Br-]","-","-","AUTO_1332","C0812_A0004","A132065","-","-","-","88.0","Celsius","-","-","-","-","88.0","Celsius","-","-","-","-","","-",""
"CC[N+](CC1=CC=CC=C1)(CC2=CC=CC=C2)CC.[Br-]","-","-","AUTO_1333","C0458_A0004","A132065","-","-","-","147.0","Celsius","-","-","-","-","147.0","Celsius","-","-","-","-","","-",""
"CCC1=CC=C(C=C1)[N+](CC2=CC=CC=C2)(C)C.[Br-]","-","-","AUTO_1334","C0532_A0004","A132065","-","-","-","159.0","Celsius","-","-","-","-","159.0","Celsius","-","-","-","-","","-",""
"CCCCCCCCCCCC[N+](CCOC(=O)C)(C)C.[Br-]","-","-","AUTO_1335","C0986_A0004","A132065","-","-","-","65.0","Celsius","-","-","-","-","65.0","Celsius","-","-","-","-","","-",""
"CCC=CC1=CC=C(C=C1)[N+](CC2=CC=CC=C2)(C)C.[Br-]","-","-","AUTO_1336","C0855_A0004","A132065","-","-","-","105.0","Celsius","-","-","-","-","105.0","Celsius","-","-","-","-","","-",""
"CCCCCC[N+](C1=CC=CC=C1OC)(C)C.[Br-]","-","-","AUTO_1337","C0220_A0004","A132065","-","-","-","182.0","Celsius","-","-","-","-","182.0","Celsius","-","-","-","-","","-",""
"O=C(C1=CC=CC=C1)C[N+](CC2CCCCC2)(C)C.[Br-]","-","-","AUTO_1338","C0032_A0004","A132065","-","-","-","186.0","Celsius","-","-","-","-","186.0","Celsius","-","-","-","-","","-",""
"C=CC[N+](C1=CC=C(C=C1)OC)(CC2=CC=CC=C2)C.[Br-]","-","-","AUTO_1339","C0534_A0004","A132065","-","-","-","148.0","Celsius","-","-","-","-","148.0","Celsius","-","-","-","-","","-",""
"O=C(C1=CC=CC=C1)OC([N+](C)(C)C)C2=CC=CC=C2.[Br-]","-","-","AUTO_1340","C0376_A0004","A132065","-","-","-","137.0","Celsius","-","-","-","-","137.0","Celsius","-","-","-","-","","-",""
"CCCCCCCCCC[N+](CCCCCCCCCCC(=O)O)(C)C.[Br-]","-","-","AUTO_1341","C1080_A0004","A132065","-","-","-","110.0","Celsius","-","-","-","-","110.0","Celsius","-","-","-","-","","-",""
"O=C(C1=CC=CC=C1)C[N+](CCCC2=CC=CC=C2)(C)C.[Br-]","-","-","AUTO_1342","C0671_A0004","A132065","-","-","-","125.0","Celsius","-","-","-","-","125.0","Celsius","-","-","-","-","","-",""
"CCCCCCCCCCCCCCCC[N+](CC(=O)OCC)(C)C.[Br-]","-","-","AUTO_1343","C0948_A0004","A132065","-","-","-","55.0","Celsius","-","-","-","-","55.0","Celsius","-","-","-","-","","-",""
"CCCCCCCCCCCCCCCC[N+](CCOC(=O)C)(C)C.[Br-]","-","-","AUTO_1344","C0047_A0004","A132065","-","-","-","73.0","Celsius","-","-","-","-","73.0","Celsius","-","-","-","-","","-",""
"CCCCCCCC1=CC=C(C=C1)[N+](CC2=CC=CC=C2)(C)C.[Br-]","-","-","AUTO_1345","C0951_A0004","A132065","-","-","-","90.0","Celsius","-","-","-","-","90.0","Celsius","-","-","-","-","","-",""
"CCCCCCCCC1=CC=C(C=C1)[N+](CC2=CC=CC=C2)(C)C.[Br-]","-","-","AUTO_1346","C0798_A0004","A132065","-","-","-","88.0","Celsius","-","-","-","-","88.0","Celsius","-","-","-","-","","-",""
"CCCCCCCCCCCCCC[N+](CC1=CC=CC=C1)(C)C.[Br-]","-","-","AUTO_1347","C0850_A0004","A132065","-","-","-","49.0","Celsius","-","-","-","-","49.0","Celsius","-","-","-","-","","-",""
"COC1=CC=CC(=C1)C[N+](CC(=O)C2=CC=CC=C2)(C)C.[Br-]","-","-","AUTO_1348","C0629_A0004","A132065","-","-","-","151.0","Celsius","-","-","-","-","151.0","Celsius","-","-","-","-","","-",""
"CCCCCCCCCCCCCCCC[N+](CCOC(=O)C)(CC)CC.[Br-]","-","-","AUTO_1349","C0308_A0004","A132065","-","-","-","71.0","Celsius","-","-","-","-","71.0","Celsius","-","-","-","-","","-",""
"CCCCCCCCCCCCCCCC[N+](CCCCCC(=O)OC)(C)C.[Br-]","-","-","AUTO_1350","C0138_A0004","A132065","-","-","-","67.0","Celsius","-","-","-","-","67.0","Celsius","-","-","-","-","","-",""
"CCCCCCCCCCCCCCC[N+](CC1=CC=CC=C1)(C)C.[Br-]","-","-","AUTO_1351","C0825_A0004","A132065","-","-","-","60.0","Celsius","-","-","-","-","60.0","Celsius","-","-","-","-","","-",""
"CC[N+](CCCOC1=CC=CC=C1)(CCCOC2=CC=CC=C2)CC.[Br-]","-","-","AUTO_1352","C1038_A0004","A132065","-","-","-","78.0","Celsius","-","-","-","-","78.0","Celsius","-","-","-","-","","-",""
"CCCCCCCCCCCCCCCC[N+](CCCCCCCC(=O)OC)(C)C.[Br-]","-","-","AUTO_1353","C1104_A0004","A132065","-","-","-","60.0","Celsius","-","-","-","-","60.0","Celsius","-","-","-","-","","-",""
"CCCCCCCCCCCC1=CC=C(C=C1)[N+](CC2=CC=CC=C2)(C)C.[Br-]","-","-","AUTO_1354","C0866_A0004","A132065","-","-","-","87.0","Celsius","-","-","-","-","87.0","Celsius","-","-","-","-","","-",""
"CCCCCCCCCCCCCCCC[N+](CCOC(=O)C)(CCCC)CCCC.[Br-]","-","-","AUTO_1355","C0694_A0004","A132065","-","-","-","53.0","Celsius","-","-","-","-","53.0","Celsius","-","-","-","-","","-",""
"CCCCCCCCCCCCOC1=CC=CC=C1[N+](CCCCCCCCCC)(C)C.[Br-]","-","-","AUTO_1356","C0758_A0004","A132065","-","-","-","39.0","Celsius","-","-","-","-","39.0","Celsius","-","-","-","-","","-",""
"CCCCCCCCCCCCOC1=CC=CC=C1[N+](CCCCCCCCCCCC)(C)C.[Br-]","-","-","AUTO_1357","C1070_A0004","A132065","-","-","-","44.0","Celsius","-","-","-","-","44.0","Celsius","-","-","-","-","","-",""
"CCCCCCCCCCCCCC[N+](C1=CC=CC=C1OCCCCCCCCCCCC)(C)C.[Br-]","-","-","AUTO_1358","C0938_A0004","A132065","-","-","-","47.0","Celsius","-","-","-","-","47.0","Celsius","-","-","-","-","","-",""
"C[N+](CCC1=CC=CC=C1)(C)C.[Br-]","-","-","AUTO_1359","C0677_A0004","A132065","-","-","-","234.0","Celsius","-","-","-","-","234.0","Celsius","-","-","-","-","","-",""
"C[N+](O)(C)C.[Br-]","-","-","AUTO_1360","C0970_A0004","A132065","-","-","-","246.0","Celsius","-","-","-","-","246.0","Celsius","-","-","-","-","","-",""
"CCCC([N+](C)(C)C)C.[Br-]","-","-","AUTO_1361","C0374_A0004","A132065","-","-","-","227.0","Celsius","-","-","-","-","227.0","Celsius","-","-","-","-","","-",""
"C[N+](C1CCCC1)(C)C.[Br-]","-","-","AUTO_1362","C0776_A0004","A132065","-","-","-","281.0","Celsius","-","-","-","-","281.0","Celsius","-","-","-","-","","-",""
"C=CC[N+](C(C)(C)C)(C)C.[Br-]","-","-","AUTO_1363","C0072_A0004","A132065","-","-","-","248.0","Celsius","-","-","-","-","248.0","Celsius","-","-","-","-","","-",""
"C[N+](C1COCC1)(C)C.[Br-]","-","-","AUTO_1364","C0039_A0004","A132065","-","-","-","250.0","Celsius","-","-","-","-","250.0","Celsius","-","-","-","-","","-",""
"C[N+](C1CCCCCC1)(C)C.[Br-]","-","-","AUTO_1365","C0797_A0004","A132065","-","-","-","278.0","Celsius","-","-","-","-","278.0","Celsius","-","-","-","-","","-",""
"CC1=CC(C)=C(C=C1C[N+](C)(C)C)C.[Br-]","-","-","AUTO_1366","C0183_A0004","A132065","-","-","-","254.0","Celsius","-","-","-","-","254.0","Celsius","-","-","-","-","","-",""
"CCCCCCCCCCCC[N+](CCO)(CCO)CC.[Br-]","-","-","AUTO_1367","C0697_A0004","A132065","-","-","-","70.0","Celsius","-","-","-","-","70.0","Celsius","-","-","-","-","","-",""
"CC=1C=CC(=C2C1C=CC=C2)C[N+](C)(C)C.[Br-]","-","-","AUTO_1368","C0640_A0004","A132065","-","-","-","233.0","Celsius","-","-","-","-","233.0","Celsius","-","-","-","-","","-",""
"CCCCCCCCCCCCCC[N+](CCCCCCCCCCCCCC)(C)C.[Br-]","-","-","AUTO_1369","C0005_A0004","A132065","-","-","-","51.0","Celsius","-","-","-","-","51.0","Celsius","-","-","-","-","","-",""
"CCCCCCCCCCCCCCCCCC[N+](CCCCCCCCCC)(C)C.[Br-]","-","-","AUTO_1370","C0286_A0004","A132065","-","-","-","61.0","Celsius","-","-","-","-","61.0","Celsius","-","-","-","-","","-",""
"CCCCC([N+](CC1=CC=CC=C1)(C)C)C(=O)OC.[Br-]","-","-","AUTO_1371","C0999_A0004","A132065","-","-","-","147.0","Celsius","-","-","-","-","147.0","Celsius","-","-","-","-","","-",""
"C[N+](CC1=CC=CC=C1)(CCCCOC2=CC=CC=C2)C.[Br-]","-","-","AUTO_1372","C0834_A0004","A132065","-","-","-","129.0","Celsius","-","-","-","-","129.0","Celsius","-","-","-","-","","-",""
"CCCC(C1=CC=CC=C1)C(=O)OCC[N+](CC)(CC)C.[Br-]","-","-","AUTO_1373","C0580_A0004","A132065","-","-","-","90.0","Celsius","-","-","-","-","90.0","Celsius","-","-","-","-","","-",""
"CCCCC([N+](CC1=CC=CC=C1)(C)C)C(=O)OCC.[Br-]","-","-","AUTO_1374","C1054_A0004","A132065","-","-","-","118.0","Celsius","-","-","-","-","118.0","Celsius","-","-","-","-","","-",""
"C[N+](C1=CC=CC=C1)(CC2=CC=CC(=C2)OC3=CC=CC=C3)C.[Br-]","-","-","AUTO_1375","C0444_A0004","A132065","-","-","-","127.0","Celsius","-","-","-","-","127.0","Celsius","-","-","-","-","","-",""
"CCCCCC[N+](CC1=CC=CC=C1)(CCCCCC)CCCCCC.[Br-]","-","-","AUTO_1376","C0069_A0004","A132065","-","-","-","102.0","Celsius","-","-","-","-","102.0","Celsius","-","-","-","-","","-",""
"C[N+](CC1=CC=CC=C1)(CCCCCOC2=CC=CC=C2)C.[Br-]","-","-","AUTO_1377","C0518_A0004","A132065","-","-","-","140.0","Celsius","-","-","-","-","140.0","Celsius","-","-","-","-","","-",""
"CC(C1=CC=C(C(=C1)C[N+](CC2=CC(=CC=C2C)C(C)C)(C)C)C)C.[Br-]","-","-","AUTO_1378","C0142_A0004","A132065","-","-","-","226.0","Celsius","-","-","-","-","226.0","Celsius","-","-","-","-","","-",""
"CCCCC(C1=CC=CC=C1)C(=O)OCC[N+](CC)(CC)C.[Br-]","-","-","AUTO_1379","C1137_A0004","A132065","-","-","-","78.0","Celsius","-","-","-","-","78.0","Celsius","-","-","-","-","","-",""
"CC(C1=CC=C(C(=C1)C[N+](CC2=CC=CC=C2)(CC3=CC=CC=C3)C)C)C.[Br-]","-","-","AUTO_1380","C0432_A0004","A132065","-","-","-","207.0","Celsius","-","-","-","-","207.0","Celsius","-","-","-","-","","-",""
"C[N+](CC1=CC=CC=C1)(CCCCOC=2C=CC=C3C2C=CC=C3)C.[Br-]","-","-","AUTO_1381","C0379_A0004","A132065","-","-","-","140.0","Celsius","-","-","-","-","140.0","Celsius","-","-","-","-","","-",""
"C[N+](CC1=CC=CC=C1)(CCCCOC2=CC=C3C(=C2)C=CC=C3)C.[Br-]","-","-","AUTO_1382","C0418_A0004","A132065","-","-","-","162.0","Celsius","-","-","-","-","162.0","Celsius","-","-","-","-","","-",""
"CCCCCCC[N+](C)(C)C.[Br-]","-","-","AUTO_1383","C0526_A0004","A132065","-","-","-","183.0","Celsius","-","-","-","-","183.0","Celsius","-","-","-","-","","-",""
"C=CC[N+](C=C(C)C)(C)C.[Br-]","-","-","AUTO_1384","C1118_A0004","A132065","-","-","-","64.0","Celsius","-","-","-","-","64.0","Celsius","-","-","-","-","","-",""
"CC[N+](C1CCCCO1)(C)C.[Br-]","-","-","AUTO_1385","C0833_A0004","A132065","-","-","-","84.0","Celsius","-","-","-","-","84.0","Celsius","-","-","-","-","","-",""
"CC#CC[N+](CC)(CC)CC.[Br-]","-","-","AUTO_1386","C0947_A0004","A132065","-","-","-","117.0","Celsius","-","-","-","-","117.0","Celsius","-","-","-","-","","-",""
"CC1=CC(=CC(=C1)C)C[N+](C)(C)C.[Br-]","-","-","AUTO_1387","C0413_A0004","A132065","-","-","-","239.0","Celsius","-","-","-","-","239.0","Celsius","-","-","-","-","","-",""
"C#CC[N+](CC#CC1=CC=CC=C1)(C)C.[Br-]","-","-","AUTO_1388","C0727_A0004","A132065","-","-","-","172.0","Celsius","-","-","-","-","172.0","Celsius","-","-","-","-","","-",""
"CC(=C[N+](CC1=CC=CC=C1)(C)C)C.[Br-]","-","-","AUTO_1389","C0735_A0004","A132065","-","-","-","165.0","Celsius","-","-","-","-","165.0","Celsius","-","-","-","-","","-",""
"COC1=CC=C(C=C1)CC[N+](C)(C)C.[Br-]","-","-","AUTO_1390","C0050_A0004","A132065","-","-","-","217.0","Celsius","-","-","-","-","217.0","Celsius","-","-","-","-","","-",""
"CCCCCCCCCCCCCCCCCC[N+](CCCCCCCC)(C)C.[Br-]","-","-","AUTO_1391","C0819_A0004","A132065","-","-","-","58.0","Celsius","-","-","-","-","58.0","Celsius","-","-","-","-","","-",""
"C[N+](C1=CC=CC=C1)(CCC2=CC=CC=C2)C.[Br-]","-","-","AUTO_1392","C0770_A0004","A132065","-","-","-","170.0","Celsius","-","-","-","-","170.0","Celsius","-","-","-","-","","-",""
"CC([N+](C1=CC=CC=C1)(C)C)C2=CC=CC=C2.[Br-]","-","-","AUTO_1393","C0281_A0004","A132065","-","-","-","120.0","Celsius","-","-","-","-","120.0","Celsius","-","-","-","-","","-",""
"OCC[N+](CC1=CC=CC(=C1C)C)(C)C.[Br-]","-","-","AUTO_1394","C0780_A0004","A132065","-","-","-","148.0","Celsius","-","-","-","-","148.0","Celsius","-","-","-","-","","-",""
"OCCC[N+](CC1=CC=CC=C1C)(C)C.[Br-]","-","-","AUTO_1395","C0303_A0004","A132065","-","-","-","129.0","Celsius","-","-","-","-","129.0","Celsius","-","-","-","-","","-",""
"CC(=O)OCC[N+](CC1=CC=CC=C1)(C)C.[Br-]","-","-","AUTO_1396","C0454_A0004","A132065","-","-","-","126.0","Celsius","-","-","-","-","126.0","Celsius","-","-","-","-","","-",""
"OCCC[N+](CC1=CC=CC(=C1C)C)(C)C.[Br-]","-","-","AUTO_1397","C0715_A0004","A132065","-","-","-","170.0","Celsius","-","-","-","-","170.0","Celsius","-","-","-","-","","-",""
"CCCCCCCCCCCCCCCCCC[N+](CCCCCCCCCCCC)(C)C.[Br-]","-","-","AUTO_1398","C0775_A0004","A132065","-","-","-","63.0","Celsius","-","-","-","-","63.0","Celsius","-","-","-","-","","-",""
"CCOC(=O)C([N+](CC1=CC=CC=C1)(C)C)C.[Br-]","-","-","AUTO_1399","C0331_A0004","A132065","-","-","-","118.0","Celsius","-","-","-","-","118.0","Celsius","-","-","-","-","","-",""
"CC[N+](CC1=CC=CC(=C1)OC2=CC=CC=C2)(CC)CC.[Br-]","-","-","AUTO_1400","C0774_A0004","A132065","-","-","-","162.0","Celsius","-","-","-","-","162.0","Celsius","-","-","-","-","","-",""
"CCCCCCCCCCCC[N+](CC1=CC(=CC=C1C)C(C)C)(C)C.[Br-]","-","-","AUTO_1401","C0764_A0004","A132065","-","-","-","154.0","Celsius","-","-","-","-","154.0","Celsius","-","-","-","-","","-",""
"CCCCCCCCCCCC[N+](CCC1=CC(=CC=C1C)C(C)C)(C)C.[Br-]","-","-","AUTO_1402","C0614_A0004","A132065","-","-","-","114.0","Celsius","-","-","-","-","114.0","Celsius","-","-","-","-","","-",""
"CCC(C1=CC=CC=C1)(C(=O)OCC[N+](CC)(CC)C)CC(C)C.[Br-]","-","-","AUTO_1403","C1148_A0004","A132065","-","-","-","143.0","Celsius","-","-","-","-","143.0","Celsius","-","-","-","-","","-",""
"CCCCCCCCCCCC[N+](CCC)(CC)CC.[Br-]","-","-","AUTO_1404","C0244_A0004","A132065","-","-","-","98.0","Celsius","-","-","-","-","98.0","Celsius","-","-","-","-","","-",""
"CCCCCCCCCCCC[N+](COCC)(CC)C.[Br-]","-","-","AUTO_1405","C0942_A0004","A132065","-","-","-","176.0","Celsius","-","-","-","-","176.0","Celsius","-","-","-","-","","-",""
"OC(=O)CC[N+](CC(=O)O)(C)C.[Br-]","-","-","AUTO_1406","C0438_A0004","A132065","-","-","-","151.0","Celsius","-","-","-","-","151.0","Celsius","-","-","-","-","","-",""
"CCCCCCCCCCCC[N+](CC(=O)O)(CC)C.[Br-]","-","-","AUTO_1407","C0351_A0004","A132065","-","-","-","103.0","Celsius","-","-","-","-","103.0","Celsius","-","-","-","-","","-",""
"CCCCCCCCCCCC[N+](CC1=CC=CC=C1)(CC)C.[Br-]","-","-","AUTO_1408","C0682_A0004","A132065","-","-","-","104.0","Celsius","-","-","-","-","104.0","Celsius","-","-","-","-","","-",""
"CCCCCCCCCCCC[N+](CC1=CC=CC=C1)(CCCC)C.[Br-]","-","-","AUTO_1409","C0320_A0004","A132065","-","-","-","78.0","Celsius","-","-","-","-","78.0","Celsius","-","-","-","-","","-",""
"OC1=CC=C(C=C1)C[N+](C)(C)C.[Br-]","-","-","AUTO_1410","C0124_A0004","A132065","-","-","-","166.0","Celsius","-","-","-","-","166.0","Celsius","-","-","-","-","","-",""
"CCCCCCCCCCCCCCCC[N+](CC1=CC=C(C=C1)O)(C)C.[Br-]","-","-","AUTO_1411","C0957_A0004","A132065","-","-","-","129.0","Celsius","-","-","-","-","129.0","Celsius","-","-","-","-","","-",""
"CC(=O)C[N+](CC1=CC=CC=C1C)(C)C.[Br-]","-","-","AUTO_1412","C0372_A0004","A132065","-","-","-","123.0","Celsius","-","-","-","-","123.0","Celsius","-","-","-","-","","-",""
"COC(=O)C[N+](CC1=CC=C(C=C1)C)(C)C.[Br-]","-","-","AUTO_1413","C0173_A0004","A132065","-","-","-","117.0","Celsius","-","-","-","-","117.0","Celsius","-","-","-","-","","-",""
"COC(=O)C[N+](CC1=CC=CC=C1C)(C)C.[Br-]","-","-","AUTO_1414","C0215_A0004","A132065","-","-","-","132.0","Celsius","-","-","-","-","132.0","Celsius","-","-","-","-","","-",""
"CC(CC(=O)C[N+](C)(C)C)C.[Br-]","-","-","AUTO_1415","C0899_A0004","A132065","-","-","-","134.0","Celsius","-","-","-","-","134.0","Celsius","-","-","-","-","","-",""
"CCOC(C[N+](C)(C)C)OCC.[Br-]","-","-","AUTO_1416","C0408_A0004","A132065","-","-","-","151.0","Celsius","-","-","-","-","151.0","Celsius","-","-","-","-","","-",""
"OCC(C[N+](C)(C)C)O.[Br-]","-","-","AUTO_1417","C0475_A0004","A132065","-","-","-","121.0","Celsius","-","-","-","-","121.0","Celsius","-","-","-","-","","-",""
"CC[N+](CC#CC1=CC=CC=C1)(CC)CC.[Br-]","-","-","AUTO_1418","C0457_A0004","A132065","-","-","-","157.0","Celsius","-","-","-","-","157.0","Celsius","-","-","-","-","","-",""
"C=CC[N+](C1=CC(C)=CC=C1O)(C)C.[Br-]","-","-","AUTO_1419","C1140_A0004","A132065","-","-","-","151.0","Celsius","-","-","-","-","151.0","Celsius","-","-","-","-","","-",""
"COC1=CC(=CC(=C1)OC)C[N+](C)(C)C.[Br-]","-","-","AUTO_1420","C0232_A0004","A132065","-","-","-","194.0","Celsius","-","-","-","-","194.0","Celsius","-","-","-","-","","-",""
"C=CC[N+](C1=CC(C)=CC(=C1O)C)(C)C.[Br-]","-","-","AUTO_1421","C1128_A0004","A132065","-","-","-","106.0","Celsius","-","-","-","-","106.0","Celsius","-","-","-","-","","-",""
"CC(=C)C[N+](C1=CC(C)=CC=C1O)(C)C.[Br-]","-","-","AUTO_1422","C0802_A0004","A132065","-","-","-","153.0","Celsius","-","-","-","-","153.0","Celsius","-","-","-","-","","-",""
"COC1=CC=C(C=C1)[N+](CC2=CC=CC=C2)(C)C.[Br-]","-","-","AUTO_1423","C0893_A0004","A132065","-","-","-","129.0","Celsius","-","-","-","-","129.0","Celsius","-","-","-","-","","-",""
"C#CC[N+](C(C(=O)C1=CC=CC=C1)C2=CC=CC=C2)(C)C.[Br-]","-","-","AUTO_1424","C0525_A0004","A132065","-","-","-","151.0","Celsius","-","-","-","-","151.0","Celsius","-","-","-","-","","-",""
"CC1=CC=C(C(=C1)[N+](CC=CC2=CC=CC=C2)(C)C)O.[Br-]","-","-","AUTO_1425","C1040_A0004","A132065","-","-","-","152.0","Celsius","-","-","-","-","152.0","Celsius","-","-","-","-","","-",""
"COC(=O)C[N+](CC=1C=CC=C2C1C=CC=C2)(C)C.[Br-]","-","-","AUTO_1426","C0283_A0004","A132065","-","-","-","162.0","Celsius","-","-","-","-","162.0","Celsius","-","-","-","-","","-",""
"CCCCCCCCCCCC[N+](CC1=CC=C(C=C1)C(=O)C2=CC=CC=C2)(C)C.[Br-]","-","-","AUTO_1427","C0800_A0004","A132065","-","-","-","126.0","Celsius","-","-","-","-","126.0","Celsius","-","-","-","-","","-",""
"O=CC1=CC=C(C=C1)[N+](C)(C)C.[Br-]","-","-","AUTO_1428","C0838_A0004","A132065","-","-","-","209.0","Celsius","-","-","-","-","209.0","Celsius","-","-","-","-","","-",""
"C=CC=C(C[N+](CC=CC1=CC=CC=C1)(C)C)C.[Br-]","-","-","AUTO_1429","C0588_A0004","A132065","-","-","-","159.0","Celsius","-","-","-","-","159.0","Celsius","-","-","-","-","","-",""
"C[N+](CC#CC1=CC=CC=C1)(CC=CC2=CC=CC=C2)C.[Br-]","-","-","AUTO_1430","C0536_A0004","A132065","-","-","-","146.0","Celsius","-","-","-","-","146.0","Celsius","-","-","-","-","","-",""
"O=C(C1=CC=CC=C1)C[N+]([C@H](C2=CC=CC=C2)C)(C)C.[Br-]","-","-","AUTO_1431","C0628_A0004","A132065","-","-","-","127.0","Celsius","-","-","-","-","127.0","Celsius","-","-","-","-","","-",""
"O=CC1=CC=C(C=C1)OCCCCCCCCCC[N+](C)(C)C.[Br-]","-","-","AUTO_1432","C0737_A0004","A132065","-","-","-","118.0","Celsius","-","-","-","-","118.0","Celsius","-","-","-","-","","-",""
"C#CC[N+](CC#CC=1C=CC=C2C1C=CC=C2)(C)C.[Br-]","-","-","AUTO_1433","C0563_A0004","A132065","-","-","-","142.0","Celsius","-","-","-","-","142.0","Celsius","-","-","-","-","","-",""
"C#CC[N+](CC#CC=1C=CC=C2C1C=CC=C2)(CC)CC.[Br-]","-","-","AUTO_1434","C0042_A0004","A132065","-","-","-","126.0","Celsius","-","-","-","-","126.0","Celsius","-","-","-","-","","-",""
"OCCC[N+](CC)(CC)CC.[Br-]","-","-","AUTO_1435","C0501_A0004","A132065","-","-","-","166.0","Celsius","-","-","-","-","166.0","Celsius","-","-","-","-","","-",""
"CCCCCCCCCC[N+](CC)(CC)CC.[Br-]","-","-","AUTO_1436","C0412_A0004","A132065","-","-","-","107.0","Celsius","-","-","-","-","107.0","Celsius","-","-","-","-","","-",""
"OC1=CC=CC(=C1)[N+](C)(C)C.[Br-]","-","-","AUTO_1437","C0388_A0004","A132065","-","-","-","207.0","Celsius","-","-","-","-","207.0","Celsius","-","-","-","-","","-",""
"CC(C1=CC=CC=C1)C[N+](C)(C)C.[Br-]","-","-","AUTO_1438","C0859_A0004","A132065","-","-","-","179.0","Celsius","-","-","-","-","179.0","Celsius","-","-","-","-","","-",""
"CCCCCCCCCCCCCCCC[N+](C(O)C)(C)C.[Br-]","-","-","AUTO_1439","C0348_A0004","A132065","-","-","-","117.0","Celsius","-","-","-","-","117.0","Celsius","-","-","-","-","","-",""
"CC(C(C1=CC=CC=C1)C[N+](C)(C)C)C.[Br-]","-","-","AUTO_1440","C0752_A0004","A132065","-","-","-","171.0","Celsius","-","-","-","-","171.0","Celsius","-","-","-","-","","-",""