"SMILES","CASRN","EXTERNALID","N","NAME","ARTICLEID","PUBMEDID","PAGE","TABLE","Melting Point","UNIT {Melting Point}","Decomposition","UNIT {Decomposition}","Glass-transition temperature (Tg)","UNIT {Glass-transition temperature (Tg)}","Melting Point {measured, converted}","UNIT {Melting Point}","Decomposition {measured, converted}","UNIT {Decomposition}","Glass-transition temperature (Tg) {measured, converted}","UNIT {Glass-transition temperature (Tg)}","weight loss","UNIT {weight loss}","Solvent"
"CC1=CC=C(C=C1)S([O-])(=O)=O.CCCC[P+](CCCC)(CCCC)CCC(F)(F)C(F)(F)C(F)(F)C(F)(F)F","-","-","AUTO_1798","-","A140250","-","-","-","-","-","291.0","Celsius","-","-","-","-","291.0","Celsius","-","-","","-",""
"CCCC[N+](CCCC)(CCCC)CCCC.FC(F)(F)COS(=O)(=O)[N-]S(=O)(=O)OCC(F)(F)F","-","-","AUTO_1799","-","A140250","-","-","-","-","-","291.0","Celsius","-","-","-","-","291.0","Celsius","-","-","","-",""
"[C@H](N)(CC(C)C)C([O-])=O.CCCC[P+](CCCC)(CCCC)CCCC","-","-","AUTO_1802","-","A139518","16718320","-","-","-","-","292.0","Celsius","-","-","-","-","292.0","Celsius","-","-","","-",""
"F[P-](F)(F)(F)(F)F.CSC1=[N+](C)C2=C(C=CC=C2)N1C","-","-","AUTO_1808","-","A139599","33137244","-","-","-","-","292.7","Celsius","-","-","-","-","292.7","Celsius","-","-","","-",""
"[Br-].CC(C)[N+]1=CC=CC=C1","-","-","AUTO_1813","-","A140250","-","-","-","-","-","293.0","Celsius","-","-","-","-","293.0","Celsius","-","-","","-",""
"COCC[N+]1(C)CCCC1.C[Si](C)(C)CCCS([O-])(=O)=O","-","-","AUTO_1815","-","A140250","-","-","-","-","-","293.0","Celsius","-","-","-","-","293.0","Celsius","-","-","","-",""
"COCC[N+]1(C)CCOC1.F[B-](F)(F)C(F)(F)C(F)(F)F","-","-","AUTO_1817","-","A139515","16389616","-","-","-","-","293.0","Celsius","-","-","-","-","293.0","Celsius","-","-","","-",""
"COCC[N+]1(C)CCOC1.F[B-](F)(F)C(F)(F)C(F)(F)C(F)(F)F","-","-","AUTO_1818","-","A139515","16389616","-","-","-","-","293.0","Celsius","-","-","-","-","293.0","Celsius","-","-","","-",""
"[Cl-].CC(CC(C)(C)C)C[P+](CCC(F)(F)C(F)(F)C(F)(F)C(F)(F)C(F)(F)C(F)(F)C(F)(F)C(F)(F)F)(CCC(F)(F)C(F)(F)C(F)(F)C(F)(F)C(F)(F)C(F)(F)C(F)(F)C(F)(F)F)CC1=CC=C(C=C)C=C1","-","-","AUTO_1821","-","A140250","-","-","-","-","-","293.0","Celsius","-","-","-","-","293.0","Celsius","-","-","","-",""
"[O-]Cl(=O)(=O)=O.CCCCCCCCCCCCCCCCOC(=O)C[N+](C)(C)C","-","-","AUTO_1822","-","A140250","-","-","-","-","-","293.0","Celsius","-","-","-","-","293.0","Celsius","-","-","","-",""
"[O-]S(O)(=O)=O.OCC[NH2+]CCO","-","-","AUTO_1826","-","A140250","-","-","","-","-","294.0","Celsius","-","-","-","-","294.0","Celsius","-","-","","-",""
"[C@H](C)(CC)[C@H](N)C([O-])=O.CCCC[P+](CCCC)(CCCC)CCCC","-","-","AUTO_1827","-","A140250","-","-","-","-","-","294.0","Celsius","-","-","-","-","294.0","Celsius","-","-","","-",""
"[Cl-].CCCCCCCC[N+]1=C2CCCCCN2CCC1","-","-","AUTO_1828","-","A140250","-","-","-","-","-","294.0","Celsius","-","-","-","-","294.0","Celsius","-","-","","-",""
"[C@H](N)(CC1=CC=C(O)C=C1)C([O-])=O.CCCC[P+](CCCC)(CCCC)CCCC","-","-","AUTO_1829","-","A140250","-","-","-","-","-","294.0","Celsius","-","-","-","-","294.0","Celsius","-","-","","-",""
"F[P-](F)(F)(F)(F)F.CCCCCCCC[P+](CCCCCCCC)(CCCCCCCC)CCC(F)(F)C(F)(F)C(F)(F)C(F)(F)C(F)(F)C(F)(F)F","-","-","AUTO_1831","-","A139518","16718320","-","-","-","-","294.0","Celsius","-","-","-","-","294.0","Celsius","-","-","","-",""
"CCC[N+](CCC)(CCC)CCOCC.FC(F)(F)S(=O)(=O)[N-]S(=O)(=O)C(F)(F)F","-","-","AUTO_1832","-","A139518","16718320","-","-","-","-","294.0","Celsius","-","-","-","-","294.0","Celsius","-","-","","-",""
"[Cl-].CCCCCCCCCCCCCC[N+]1=C2CCCCCN2CCC1","-","-","AUTO_1833","-","A140250","-","-","-","-","-","294.0","Celsius","-","-","-","-","294.0","Celsius","-","-","","-",""
"CCCC[N+]1=CN(C)C=C1.[O-]S(=O)(=O)C(F)(F)C(F)(F)C(F)(F)C(F)(F)F","-","-","AUTO_1834","-","A140250","-","-","-","-","-","295.0","Celsius","-","-","-","-","295.0","Celsius","-","-","","-",""
"[Cl-].OS(=O)(=O)[N+]1=CC=CC=C1","-","-","AUTO_1835","-","A140250","-","-","-","-","-","295.0","Celsius","-","-","-","-","295.0","Celsius","-","-","","-",""
"[I-].CCCC[P+](CCCC)(CCCC)CCC(F)(F)C(F)(F)C(F)(F)C(F)(F)C(F)(F)C(F)(F)F","-","-","AUTO_1839","-","A140250","-","-","-","-","-","295.0","Celsius","-","-","-","-","295.0","Celsius","-","-","","-",""
"FC(F)(F)S(=O)(=O)[N-]S(=O)(=O)C(F)(F)F.CC1=CC(C[N+](C)(C)CC2=CC(C)=CC=C2)=CC=C1","-","-","AUTO_1843","-","A140250","-","-","-","-","-","295.0","Celsius","-","-","-","-","295.0","Celsius","-","-","","-",""
"FC(F)(F)S(=O)(=O)[N-]S(=O)(=O)C(F)(F)F.CCCCOC(=O)C1=C[N+](CCCC)=CC=C1","-","-","AUTO_1845","-","A140250","-","-","-","-","-","295.85","Celsius","-","-","-","-","295.85","Celsius","-","-","","-",""
"[O-][N+]([O-])=O.CCCCCCCCCCN1C=C[N+](CCCCCCCCCC)=C1","-","-","AUTO_1847","-","A140250","-","-","-","-","-","296.0","Celsius","-","-","-","-","296.0","Celsius","-","-","","-",""
"CC1=CC=C(C=C1)S([O-])(=O)=O.CCCCCCCC[P+](CCCCCCCC)(CCCCCCCC)CCC(F)(F)C(F)(F)C(F)(F)C(F)(F)F","-","-","AUTO_1849","-","A140250","-","-","-","-","-","296.0","Celsius","-","-","-","-","296.0","Celsius","-","-","","-",""
"CC[N+](C)(CC)CCOC.FC(F)(F)COS(=O)(=O)[N-]S(=O)(=O)OCC(F)(F)F","-","-","AUTO_1850","-","A140250","-","-","-","-","-","296.0","Celsius","-","-","-","-","296.0","Celsius","-","-","","-",""
"[Cl-].CC(CC(C)(C)C)C[P+](CCC(F)(F)C(F)(F)C(F)(F)C(F)(F)F)(CCC(F)(F)C(F)(F)C(F)(F)C(F)(F)F)CC1=CC=C(C=C)C=C1","-","-","AUTO_1851","-","A140250","-","-","-","-","-","296.0","Celsius","-","-","-","-","296.0","Celsius","-","-","","-",""
"NC(CCS([O-])(=O)=O)C([O-])=O.CCCCCCCCCCCCCC[P+](CCCCCC)(CCCCCC)CCCCCC","-","-","AUTO_1853","-","A140250","-","-","-","-","-","296.0","Celsius","-","-","-","-","296.0","Celsius","-","-","","-",""
"CS([O-])(=O)=O.[C@H]12CO[C@H](C[N+]3=CC=CC=C3)[C@H]1OC(C)(C)O2","-","-","AUTO_1854","-","A140250","-","-","-","-","-","296.0","Celsius","-","-","-","-","296.0","Celsius","-","-","","-",""
"CCOC(=O)[C@@H]([NH3+])CC1=CC=CC=C1.FC(F)(F)C(F)(F)S(=O)(=O)[N-]S(=O)(=O)C(F)(F)C(F)(F)F","-","-","AUTO_1855","-","A140250","-","-","","-","-","296.81","Celsius","-","-","-","-","296.81","Celsius","-","-","","-",""
"F[B-](F)(F)C(F)(F)C(F)(F)F.COCCOCC[N+]1(C)CCCC1","-","-","AUTO_1858","-","A140250","-","-","-","-","-","297.0","Celsius","-","-","-","-","297.0","Celsius","-","-","","-",""
"F[B-](F)(F)F.COCC[N+]1(C)CCOC1","-","-","AUTO_1861","-","A140250","-","-","-","-","-","297.0","Celsius","-","-","-","-","297.0","Celsius","-","-","","-",""
"F[P-](F)(F)(F)(F)F.CCCC[P+](CCCC)(CCCC)CCC(F)(F)C(F)(F)C(F)(F)C(F)(F)C(F)(F)C(F)(F)F","-","-","AUTO_1862","-","A139515","16389616","-","-","-","-","297.0","Celsius","-","-","-","-","297.0","Celsius","-","-","","-",""
"[O-]S(=O)(=O)C(F)(F)F.O[C@H]1CO[C@H](C[N+]2=CC=CC=C2)[C@H]1O","-","-","AUTO_1863","-","A140250","-","-","-","-","-","297.0","Celsius","-","-","-","-","297.0","Celsius","-","-","","-",""
"CCC[P+](C)(C)C.FS(=O)(=O)[N-]S(F)(=O)=O","-","-","AUTO_1866","-","A140250","-","-","-","-","-","298.0","Celsius","-","-","-","-","298.0","Celsius","-","-","","-",""
"[O-]Cl(=O)(=O)=O.FC(F)(F)CC[N+]1=CC=CC=N1","-","-","AUTO_1867","-","A140250","-","-","-","-","-","298.0","Celsius","-","-","-","-","298.0","Celsius","-","-","","-",""
"CCCC[N+](C)(CC)CC.FC(F)(F)COS(=O)(=O)[N-]S(=O)(=O)OCC(F)(F)F","-","-","AUTO_1870","-","A139511","15762697","-","-","-","-","298.0","Celsius","-","-","-","-","298.0","Celsius","-","-","","-",""
"[O-]S(O)(=O)=O.C1=CC2=C(N=C1)C3=C(C=CC=[NH+]3)C=C2","-","-","AUTO_1871","-","A140250","-","-","","-","-","298.3","Celsius","-","-","-","-","298.3","Celsius","-","-","","-",""
"[Cl-].CCCCCCN(CCCCCC)C(N(C)C)=[N+](C)C","-","-","AUTO_1874","-","A140250","-","-","-","-","-","299.0","Celsius","-","-","-","-","299.0","Celsius","-","-","","-",""
"[C@H](N)(CC1=CN=CN1)C([O-])=O.CCCC[P+](CCCC)(CCCC)CCCC","-","-","AUTO_1875","-","A139518","16718320","-","-","-","-","299.0","Celsius","-","-","-","-","299.0","Celsius","-","-","","-",""
"F[P-](F)(F)(F)(F)F.CCCCN1C=CN=C1C2=[N+](CCCC)C=CN2CCCC","-","-","AUTO_1877","-","A139601","33908684","-","","-","-","299.12","Celsius","-","-","-","-","299.12","Celsius","-","-","","-",""
"OP(O)([O-])=O.CN1C=C[N+](CC(O)=O)=C1","-","-","AUTO_1878","-","A140250","-","-","-","-","-","299.35","Celsius","-","-","-","-","299.35","Celsius","-","-","","-",""
"F[P-](F)(F)(F)(F)F.CCCC[N+](CCCC)(CCCC)CCCC","-","-","AUTO_1879","-","A139568","25241963","-","","-","-","299.84","Celsius","-","-","-","-","299.84","Celsius","-","-","","-",""
"NC(=O)CN1C=C[N+](C=C)=C1.FC(F)(F)S(=O)(=O)[N-]S(=O)(=O)C(F)(F)F","-","-","AUTO_1880","-","A140250","-","-","-","-","-","299.99","Celsius","-","-","-","-","299.99","Celsius","-","-","","-",""
"OS([O-])(=O)=O.OS(=O)(=O)CCCC[N+]1=CC=CC=C1","-","-","AUTO_1883","-","A140250","-","-","-","-","-","300.0","Celsius","-","-","-","-","300.0","Celsius","-","-","","-",""
"CS([O-])(=O)=O.CN1C=C[N+](CCCCS(O)(=O)=O)=C1","-","-","AUTO_1885","-","A139530","18217657","-","-","-","-","300.0","Celsius","-","-","-","-","300.0","Celsius","-","-","","-",""
"O=C1[N-]S(=O)(=O)C2=C1C=CC=C2.CCCC[P+](CCCC)(CCCC)CCCC","-","-","AUTO_1890","-","A140250","-","-","-","-","-","300.0","Celsius","-","-","-","-","300.0","Celsius","-","-","","-",""
"CC1=CC=C(C=C1)S([O-])(=O)=O.CCCC[P+](CCCC)(CCCC)CCC(F)(F)C(F)(F)C(F)(F)C(F)(F)C(F)(F)C(F)(F)F","-","-","AUTO_1893","-","A140250","-","-","-","-","-","300.0","Celsius","-","-","-","-","300.0","Celsius","-","-","","-",""
"[Br-].NC(=O)C[N+]1=C2CCCN2CCC1","-","-","AUTO_1901","-","A140250","-","-","-","-","-","300.0","Celsius","-","-","-","-","300.0","Celsius","-","-","","-",""
"FC(F)(F)S(=O)(=O)[N-]S(=O)(=O)C(F)(F)F.CC(C)[C@H](NC(=O)[C@@H]1CCCN1C(=O)OC(C)(C)C)C(=O)NCC[N+]2=CN(C)C=C2","-","-","AUTO_1902","-","A140250","-","-","-","-","-","300.0","Celsius","-","-","-","-","300.0","Celsius","-","-","","-",""
"FC(F)(F)S(=O)(=O)[N-]S(=O)(=O)C(F)(F)F.C[C@H](NC(=O)[C@@H]1CCCN1C(=O)OC(C)(C)C)C(=O)NCC[N+]2=CN(C)C=C2","-","-","AUTO_1903","-","A140250","-","-","-","-","-","300.0","Celsius","-","-","-","-","300.0","Celsius","-","-","","-",""
"CC(C)N(CC[N+]1=CN(C)C=C1)C(C)C.FC(F)(F)S(=O)(=O)[N-]S(=O)(=O)C(F)(F)F","-","-","AUTO_1905","-","A140250","-","-","-","-","-","301.0","Celsius","-","-","-","-","301.0","Celsius","-","-","","-",""
"[I-].FC(F)(F)C(F)(F)C(F)(F)C(F)(F)C(F)(F)C(F)(F)C(F)(F)C(F)(F)C(F)(F)C(F)(F)CC[N+]1=CC=CC=N1","-","-","AUTO_1909","-","A140250","-","-","-","-","-","301.0","Celsius","-","-","-","-","301.0","Celsius","-","-","","-",""
"[O-]S(=O)(=O)C(F)(F)F.C=CCO[C@H]1CO[C@H](C[N+]2=CC=CC=C2)[C@H]1OCC=C","-","-","AUTO_1910","-","A140250","-","-","-","-","-","301.0","Celsius","-","-","-","-","301.0","Celsius","-","-","","-",""
"F[B-](F)(F)F.CCC[N+](CCC)(CCC)CCC","-","-","AUTO_1912","-","A139568","25241963","-","","-","-","301.84","Celsius","-","-","-","-","301.84","Celsius","-","-","","-",""
"CCC[N+]1(C)CCCCC1.FC(F)(F)COS(=O)(=O)[N-]S(=O)(=O)OCC(F)(F)F","-","-","AUTO_1914","-","A140250","-","-","-","-","-","302.0","Celsius","-","-","-","-","302.0","Celsius","-","-","","-",""
"CCC[N+](C)(CC)CC.FC(F)(F)COS(=O)(=O)[N-]S(=O)(=O)OCC(F)(F)F","-","-","AUTO_1915","-","A140250","-","-","-","-","-","302.0","Celsius","-","-","-","-","302.0","Celsius","-","-","","-",""
"N#C[BH2-]C#N.CCCC[N+]1(C)CCCC1","-","-","AUTO_1917","-","A140250","-","-","-","-","-","303.0","Celsius","-","-","-","-","303.0","Celsius","-","-","","-",""
"CCC[N+]1(C)CCCC1.FC(F)(F)COS(=O)(=O)[N-]S(=O)(=O)OCC(F)(F)F","-","-","AUTO_1919","-","A140250","-","-","-","-","-","303.0","Celsius","-","-","-","-","303.0","Celsius","-","-","","-",""
"[Cl-].CCCCCC[N+]1=C2CCCCCN2CCC1","-","-","AUTO_1920","-","A139550","21246695","-","-","-","-","303.0","Celsius","-","-","-","-","303.0","Celsius","-","-","","-",""
"[Cl-].CCCCCCCCCC[P+](CCCCCC)(CCCCCC)CCCCCC","-","-","AUTO_1921","-","A140250","-","-","-","-","-","304.0","Celsius","-","-","-","-","304.0","Celsius","-","-","","-",""
"[O-]S(=O)(=O)C(F)(F)F.FCC[N+]1=CC=CC=N1","-","-","AUTO_1924","-","A139563","24511156","-","-","-","-","304.0","Celsius","-","-","-","-","304.0","Celsius","-","-","","-",""
"F[P-](F)(F)(F)(F)F.CCCC[P+](CCCC)(CCCC)CCC(F)(F)C(F)(F)C(F)(F)C(F)(F)F","-","-","AUTO_1926","-","A140250","-","-","-","-","-","304.0","Celsius","-","-","-","-","304.0","Celsius","-","-","","-",""
"[Cl-].CCCCCCCCCC[P+](CCCC)(CCCC)CCCC","-","-","AUTO_1929","-","A140250","-","-","-","-","-","305.0","Celsius","-","-","-","-","305.0","Celsius","-","-","","-",""
"CCCCN1C=C[N+](C)=C1.OC(C(O)C([O-])=O)C(O)=O","-","-","AUTO_1931","-","A140250","-","-","-","-","-","305.0","Celsius","-","-","-","-","305.0","Celsius","-","-","","-",""
"CCCCN1C=C[N+](C)=C1.OC(=O)C1=CC=CC=C1C([O-])=O","-","-","AUTO_1932","-","A139563","24511156","-","-","-","-","305.0","Celsius","-","-","-","-","305.0","Celsius","-","-","","-",""
"[I-].C[P+](C)(C)CCC(F)(F)C(F)(F)C(F)(F)C(F)(F)F","-","-","AUTO_1935","-","A139521","17082864","-","-","-","-","305.0","Celsius","-","-","-","-","305.0","Celsius","-","-","","-",""
"[Br-].CCCCCCCCC[N+]1=CN(C=C1)[C@@H](C(C)C)C(=O)NCCCC","-","-","AUTO_1936","-","A139521","17082864","-","-","-","-","305.0","Celsius","-","-","-","-","305.0","Celsius","-","-","","-",""
"F[B-](F)(F)F.CCCCCCOC(=O)C[N+](C)(C)C","-","-","AUTO_1937","-","A140250","-","-","-","-","-","305.0","Celsius","-","-","-","-","305.0","Celsius","-","-","","-",""
"OS([O-])(=O)=O.C[N+]1=CN(CC(O)=O)C=C1","-","-","AUTO_1938","-","A140250","-","-","-","-","-","305.35","Celsius","-","-","-","-","305.35","Celsius","-","-","","-",""
"[NH3+]CCO.[O-]S(O)(=O)=O","-","-","AUTO_1941","-","A140250","-","-","","-","-","306.0","Celsius","-","-","-","-","306.0","Celsius","-","-","","-",""
"[O-][N+]([O-])=O.CCCCCCN1C=C[N+](CCCCCC)=C1","-","-","AUTO_1944","-","A140250","-","-","-","-","-","306.0","Celsius","-","-","-","-","306.0","Celsius","-","-","","-",""
"FC(F)(F)S(=O)(=O)[N-]S(=O)(=O)C(F)(F)F.C[N+](C)(CC1=CC=CC=C1)CC2=CC=CC=C2","-","-","AUTO_1946","-","A140250","-","-","-","-","-","306.0","Celsius","-","-","-","-","306.0","Celsius","-","-","","-",""
"F[B-](F)(F)C(F)(F)C(F)(F)F.CCCCCC[N+]1(C)CCCC1","-","-","AUTO_1947","-","A139550","21246695","-","-","-","-","307.0","Celsius","-","-","-","-","307.0","Celsius","-","-","","-",""
"CCCCC[N+]1(C)CCCC1.F[B-](F)(F)C(F)(F)C(F)(F)F","-","-","AUTO_1950","-","A140250","-","-","-","-","-","307.0","Celsius","-","-","-","-","307.0","Celsius","-","-","","-",""
"N#C[BH2-]C#N.CCCC[N+]1=CN(C)C=C1","-","-","AUTO_1953","-","A140250","-","-","-","-","-","307.0","Celsius","-","-","-","-","307.0","Celsius","-","-","","-",""
"[I-].CCCN1C=C[N+](C)=C1","-","-","AUTO_1957","-","A140250","-","-","-","-","-","308.0","Celsius","-","-","-","-","308.0","Celsius","-","-","","-",""
"[Br-].CCCCCCCCCC[N+]1=CC=CC=C1","-","-","AUTO_1958","-","A140250","-","-","-","-","-","308.0","Celsius","-","-","-","-","308.0","Celsius","-","-","","-",""
"CCOCCOCC[N+]1=CN(C)N=C1.FC(F)(F)S(=O)(=O)[N-]S(=O)(=O)C(F)(F)F","-","-","AUTO_1960","-","A139508","15455143","-","-","-","-","308.0","Celsius","-","-","-","-","308.0","Celsius","-","-","","-",""
"CC1=CC=C(C=C1)S([O-])(=O)=O.OS(=O)(=O)CCCC[P+](C1=CC=CC=C1)(C2=CC=CC=C2)C3=CC=CC=C3","-","-","AUTO_1967","-","A140250","-","-","-","-","-","310.0","Celsius","-","-","-","-","310.0","Celsius","-","-","","-",""
"F[B-](F)(C#N)C(F)(F)C(F)(F)F.C1=CC=C(C=C1)[P+](C2=CC=CC=C2)(C3=CC=CC=C3)C4=CC=CC=C4","-","-","AUTO_1968","-","A139508","15455143","-","-","-","-","310.0","Celsius","-","-","-","-","310.0","Celsius","-","-","","-",""
"COCC[N+]1=CN(C)N=C1.FC(F)(F)S(=O)(=O)[N-]S(=O)(=O)C(F)(F)F","-","-","AUTO_1969","-","A139586","28884848","-","-","-","-","310.0","Celsius","-","-","-","-","310.0","Celsius","-","-","","-",""
"[I-].CCCC[N+]1=CN(C=C1)[C@@H](CC(C)C)C(=O)NCC2=CC=CC=C2","-","-","AUTO_1972","-","A140250","-","-","-","-","-","310.0","Celsius","-","-","-","-","310.0","Celsius","-","-","","-",""
"FC(F)(F)S(=O)(=O)[N-]S(=O)(=O)C(F)(F)F.CCCCNC(=O)[C@H](C(C)C)N1C=C[N+](CCCC)=C1","-","-","AUTO_1973","-","A140250","-","-","-","-","-","310.0","Celsius","-","-","-","-","310.0","Celsius","-","-","","-",""
"CC1=CC=C(C=C1)S([O-])(=O)=O.CN1C=C[N+](CCCS(O)(=O)=O)=C1","-","-","AUTO_1974","-","A140250","-","-","-","-","-","310.9","Celsius","-","-","-","-","310.9","Celsius","-","-","","-",""
"OS([O-])(=O)=O.CCCCN1C=C[N+](CCCCS(O)(=O)=O)=C1","-","-","AUTO_1976","-","A139557","23117624","-","-","-","-","311.0","Celsius","-","-","-","-","311.0","Celsius","-","-","","-",""
"F[B-](F)(F)C(F)(F)C(F)(F)F.CCCCCCC[N+]1(C)CCCC1","-","-","AUTO_1979","-","A140250","-","-","-","-","-","311.0","Celsius","-","-","-","-","311.0","Celsius","-","-","","-",""
"[C@H](N)(CCC(N)=O)C([O-])=O.CCCC[P+](CCCC)(CCCC)CCCC","-","-","AUTO_1981","-","A140250","-","-","-","-","-","311.0","Celsius","-","-","-","-","311.0","Celsius","-","-","","-",""
"[O-]S(=O)(=O)C(F)(F)F.CCCCCCCC[P+](CCCCCCCC)(CCCCCCCC)CCC(F)(F)C(F)(F)C(F)(F)C(F)(F)F","-","-","AUTO_1982","-","A140250","-","-","-","-","-","311.0","Celsius","-","-","-","-","311.0","Celsius","-","-","","-",""
"FC(F)(F)S(=O)(=O)[N-]S(=O)(=O)C(F)(F)F.O=C(C[N+]1=CC=CC=C1)C2=CC=CC=C2","-","-","AUTO_1983","-","A139518","16718320","-","-","-","-","311.0","Celsius","-","-","-","-","311.0","Celsius","-","-","","-",""
"CCC[N+]1(C)CCCC1.F[B-](F)(F)C(F)(F)C(F)(F)F","-","-","AUTO_1986","-","A140250","-","-","-","-","-","312.0","Celsius","-","-","-","-","312.0","Celsius","-","-","","-",""
"F[P-](F)(F)(F)(F)F.CCCC[P+](CCCC)(CCCC)CCC(F)(F)C(F)(F)C(F)(F)C(F)(F)C(F)(F)C(F)(F)C(F)(F)C(F)(F)C(F)(F)C(F)(F)F","-","-","AUTO_1989","-","A140250","-","-","-","-","-","312.0","Celsius","-","-","-","-","312.0","Celsius","-","-","","-",""
"F[B-](F)(F)F.CCCCCCCC[P+](CCCCCCCC)(CCCCCCCC)CCC(F)(F)C(F)(F)C(F)(F)C(F)(F)C(F)(F)C(F)(F)F","-","-","AUTO_1993","-","A140250","-","-","-","-","-","313.0","Celsius","-","-","-","-","313.0","Celsius","-","-","","-",""
"F[P-](F)(F)(F)(F)F.CCCCCCCC[P+](CCCCCCCC)(CCCCCCCC)CCC(F)(F)C(F)(F)C(F)(F)C(F)(F)C(F)(F)C(F)(F)C(F)(F)C(F)(F)C(F)(F)C(F)(F)F","-","-","AUTO_1994","-","A140250","-","-","-","-","-","313.0","Celsius","-","-","-","-","313.0","Celsius","-","-","","-",""
"[C@H]1(CCCN1)C([O-])=O.CCCC[P+](CCCC)(CCCC)CCCC","-","-","AUTO_1996","-","A139518","16718320","-","-","-","-","314.0","Celsius","-","-","-","-","314.0","Celsius","-","-","","-",""
"[O-]S(=O)(=O)C(F)(F)F.CCCCSC1=[NH+]C=CN1C","-","-","AUTO_2001","-","A139531","18402480","-","","-","-","314.0","Celsius","-","-","-","-","314.0","Celsius","-","-","","-",""
"FC(F)(F)S(=O)(=O)[N-]S(=O)(=O)C(F)(F)F.C[N+]1=CN(CCC(F)(F)C(F)(F)C(F)(F)C(F)(F)F)C=C1","-","-","AUTO_2003","-","A140250","-","-","-","-","-","314.85","Celsius","-","-","-","-","314.85","Celsius","-","-","","-",""
"N#C[C-](C#N)C#N.CCCC[N+]1(C)CCCC1","-","-","AUTO_2008","-","A140250","-","-","-","-","-","315.0","Celsius","-","-","-","-","315.0","Celsius","-","-","","-",""
"[I-].FC(F)(F)C(F)(F)C(F)(F)C(F)(F)C(F)(F)C(F)(F)CC[N+]1=CC=CN=C1","-","-","AUTO_2009","-","A140250","-","-","-","-","-","315.0","Celsius","-","-","-","-","315.0","Celsius","-","-","","-",""
"C[N+]1(C)CCCC1.N#C[C-](C#N)C#N","-","-","AUTO_2012","-","A140250","-","-","-","-","-","315.0","Celsius","-","-","-","-","315.0","Celsius","-","-","","-",""
"[I-].CCCCNC(=O)[C@H](C(C)C)N1C=C[N+](CCCC)=C1","-","-","AUTO_2014","-","A140250","-","-","-","-","-","315.0","Celsius","-","-","-","-","315.0","Celsius","-","-","","-",""
"C[Si](C)(C)CCCS([O-])(=O)=O.CCCCCCCCCCCC[P+](CCCC)(CCCC)CCCC","-","-","AUTO_2017","-","A140250","-","-","-","-","-","316.0","Celsius","-","-","-","-","316.0","Celsius","-","-","","-",""
"CCC[N+]1=CC=NC=C1.FC(F)(F)S(=O)(=O)[N-]S(=O)(=O)C(F)(F)F","-","-","AUTO_2018","-","A140250","-","-","-","-","-","316.0","Celsius","-","-","-","-","316.0","Celsius","-","-","","-",""
"[C@H](N)(CC1=CNC2=C1C=CC=C2)C([O-])=O.CCCC[P+](CCCC)(CCCC)CCCC","-","-","AUTO_2019","-","A140250","-","-","-","-","-","316.0","Celsius","-","-","-","-","316.0","Celsius","-","-","","-",""
"CC1=CC=C(C=C1)S([O-])(=O)=O.CCCC[P+](CCCC)(CCCC)CCC(F)(F)C(F)(F)C(F)(F)C(F)(F)C(F)(F)C(F)(F)C(F)(F)C(F)(F)C(F)(F)C(F)(F)F","-","-","AUTO_2020","-","A140250","-","-","-","-","-","316.0","Celsius","-","-","-","-","316.0","Celsius","-","-","","-",""