"SMILES","CASRN","EXTERNALID","N","NAME","ARTICLEID","PUBMEDID","PAGE","TABLE","Melting Point","UNIT {Melting Point}","Decomposition","UNIT {Decomposition}","Glass-transition temperature (Tg)","UNIT {Glass-transition temperature (Tg)}","Melting Point {measured, converted}","UNIT {Melting Point}","Decomposition {measured, converted}","UNIT {Decomposition}","Glass-transition temperature (Tg) {measured, converted}","UNIT {Glass-transition temperature (Tg)}","weight loss","UNIT {weight loss}","Solvent"
"CCCC[N+](CC)(CC)C.FC(C(C(F)(F)[B-](F)(F)F)(F)F)(C(F)(F)F)F","-","-","AUTO_585","C0981_A0021","A132065","-","-","-","60.0","Celsius","-","-","-","-","60.0","Celsius","-","-","-","-","","-",""
"COCC[N+](C)(C)C.F[B-](F)(F)F","-","-","AUTO_586","C0452_A0020","A132065","-","-","-","54.0","Celsius","-","-","-","-","54.0","Celsius","-","-","-","-","","-",""
"COCC[N+](C)(C)C.C(F)(F)(F)S(=O)(=O)[N-]S(=O)(=O)C(F)(F)F","-","-","AUTO_587","C0452_A0048","A132065","-","-","-","37.0","Celsius","-","-","-","-","37.0","Celsius","-","-","-","-","","-",""
"COCC[N+](C)(C)C.FC(F)(F)[B-](F)(F)F","-","-","AUTO_588","C0452_A0008","A132065","-","-","-","77.0","Celsius","-","-","-","-","77.0","Celsius","-","-","-","-","","-",""
"COCC[N+](C)(C)C.FC(C(F)(F)F)(F)[B-](F)(F)F","-","-","AUTO_589","C0452_A0043","A132065","-","-","-","30.0","Celsius","-","-","-","-","30.0","Celsius","-","-","-","-","","-",""
"COCC[N+](C)(C)C.FC(C(F)(F)[B-](F)(F)F)(C(F)(F)F)F","-","-","AUTO_590","C0452_A0009","A132065","-","-","-","23.0","Celsius","-","-","-","-","23.0","Celsius","-","-","-","-","","-",""
"COCC[N+](C)(C)C.FC(C(C(F)(F)[B-](F)(F)F)(F)F)(C(F)(F)F)F","-","-","AUTO_591","C0452_A0021","A132065","-","-","-","50.0","Celsius","-","-","-","-","50.0","Celsius","-","-","-","-","","-",""
"COCC[N+](CC)(C)C.F[B-](F)(F)F","-","-","AUTO_592","C0918_A0020","A132065","-","-","-","4.0","Celsius","-","-","-","-","4.0","Celsius","-","-","-","-","","-",""
"COCC[N+](CC)(C)C.FC(F)(F)[B-](F)(F)F","-","-","AUTO_593","C0918_A0008","A132065","-","-","-","8.0","Celsius","-","-","-","-","8.0","Celsius","-","-","-","-","","-",""
"COCC[N+](CC)(C)C.FC(C(F)(F)F)(F)[B-](F)(F)F","-","-","AUTO_594","C0918_A0043","A132065","-","-","-","-33.0","Celsius","-","-","-","-","-33.0","Celsius","-","-","-","-","","-",""
"COCC[N+](CC)(C)C.FC(C(C(F)(F)[B-](F)(F)F)(F)F)(C(F)(F)F)F","-","-","AUTO_595","C0918_A0021","A132065","-","-","-","-28.0","Celsius","-","-","-","-","-28.0","Celsius","-","-","-","-","","-",""
"COCC[N+](CC)(CC)C.FC(F)(F)[B-](F)(F)F","-","-","AUTO_596","C0406_A0008","A132065","-","-","-","-22.0","Celsius","-","-","-","-","-22.0","Celsius","-","-","-","-","","-",""
"COCC[N+](CC)(CC)CC.F[B-](F)(F)F","-","-","AUTO_597","C0260_A0020","A132065","-","-","-","56.0","Celsius","-","-","-","-","56.0","Celsius","-","-","-","-","","-",""
"COCC[N+](CC)(CC)CC.FC(F)(F)[B-](F)(F)F","-","-","AUTO_598","C0260_A0008","A132065","-","-","-","10.0","Celsius","-","-","-","-","10.0","Celsius","-","-","-","-","","-",""
"COCC[N+](CC)(CC)CC.FC(C(F)(F)F)(F)[B-](F)(F)F","-","-","AUTO_599","C0260_A0043","A132065","-","-","-","3.0","Celsius","-","-","-","-","3.0","Celsius","-","-","-","-","","-",""
"COCC[N+](CC)(CC)CC.FC(C(F)(F)[B-](F)(F)F)(C(F)(F)F)F","-","-","AUTO_600","C0260_A0009","A132065","-","-","-","6.0","Celsius","-","-","-","-","6.0","Celsius","-","-","-","-","","-",""
"COCC[N+](CC)(CC)CC.FC(C(C(F)(F)[B-](F)(F)F)(F)F)(C(F)(F)F)F","-","-","AUTO_601","C0260_A0021","A132065","-","-","-","11.0","Celsius","-","-","-","-","11.0","Celsius","-","-","-","-","","-",""
"CCCCCCCC[N+](CCCCCCCC)(CCCCCCCC)C.F[B-](F)(F)F","-","-","AUTO_602","C0979_A0020","A132065","-","-","-","60.0","Celsius","-","-","-","-","60.0","Celsius","-","-","-","-","","-",""
"CCCCCCCC[N+](CCCCCCCC)(CCCCCCCC)C.FC(C=1C=C(C=C(C1)C(F)(F)F)[B-](C2=CC(=CC(=C2)C(F)(F)F)C(F)(F)F)(C3=CC(=CC(=C3)C(F)(F)F)C(F)(F)F)C4=CC(=CC(=C4)C(F)(F)F)C(F)(F)F)(F)F","-","-","AUTO_603","C0979_A0006","A132065","-","-","-","36.0","Celsius","-","-","-","-","36.0","Celsius","-","-","-","-","","-",""
"CCCCCCCC[N+](CCCCCCCC)(CCCCCCCC)C.[BH4-]","-","-","AUTO_604","C0979_A0026","A132065","-","-","-","-8.0","Celsius","-","-","-","-","-8.0","Celsius","-","-","-","-","","-",""
"CCCCCCCC[N+](CCCCCCCC)(CCCCCCCC)C.C(F)(F)(F)S(=O)(=O)[N-]S(=O)(=O)C(F)(F)F","-","-","AUTO_605","C0979_A0048","A132065","-","-","-","-39.0","Celsius","-","-","-","-","-39.0","Celsius","-","-","-","-","","-",""
"CCCCCCCC[N+](CCCCCCCC)(CCCCCCCC)C.[N+](=O)([O-])[O-]","-","-","AUTO_606","C0979_A0090","A132065","-","-","-","13.0","Celsius","-","-","-","-","13.0","Celsius","-","-","-","-","","-",""
"CCCCCCCC[N+](CCCCCCCC)(CCCCCCCC)C.S(=O)(=O)([O-])C1=CC=C(C)C=C1","-","-","AUTO_607","C0979_A0030","A132065","-","-","-","78.0","Celsius","-","-","-","-","78.0","Celsius","-","-","-","-","","-",""
"CCCCCCCC[N+](CCCCCCCC)(CCCCCCCC)C.FC(COS(=O)(=O)[O-])(F)F","-","-","AUTO_608","C0979_A0080","A132065","-","-","-","4.0","Celsius","-","-","-","-","4.0","Celsius","-","-","-","-","","-",""
"CCCCCCCC[N+](CCCCCCCC)(CCCCCCCC)C.FC(COS(=O)(=O)[O-])(C(F)F)F","-","-","AUTO_609","C0979_A0038","A132065","-","-","-","-5.0","Celsius","-","-","-","-","-5.0","Celsius","-","-","-","-","","-",""
"CCCCCCCC[N+](CCCCCCCC)(CCCCCCCC)C.FC(COS(=O)(=O)[O-])(C(C(C(F)F)(F)F)(F)F)F","-","-","AUTO_610","C0979_A0078","A132065","-","-","-","-2.0","Celsius","-","-","-","-","-2.0","Celsius","-","-","-","-","","-",""
"CCCCCCCC[N+](CCCCCCCC)(CCCCCCCC)C.S(=O)(=O)(O)[O-]","-","-","AUTO_611","C0979_A0017","A132065","-","-","-","-22.0","Celsius","-","-","-","-","-22.0","Celsius","-","-","-","-","","-",""
"CCCCCCCC[N+](CCCCCCCC)(CCCCCCCC)C.F[P-](F)(F)(F)(F)F","-","-","AUTO_612","C0979_A0011","A132065","-","-","-","59.0","Celsius","-","-","-","-","59.0","Celsius","-","-","-","-","","-",""
"CCCCCCCC[N+](CCCCCCCC)(CCCCCCCC)C.P(=O)(O)(O)[O-]","-","-","AUTO_613","C0979_A0012","A132065","-","-","-","-23.0","Celsius","-","-","-","-","-23.0","Celsius","-","-","-","-","","-",""
"CCCCCCCC[N+](CCCCCCCC)(CCCCCCCC)C.C(C)(=O)[O-]","-","-","AUTO_614","C0979_A0087","A132065","-","-","-","-23.0","Celsius","-","-","-","-","-23.0","Celsius","-","-","-","-","","-",""
"CCCCCCCC[N+](CCCCCCCC)(CCCCCCCC)C.C(=O)[O-]","-","-","AUTO_615","C0979_A0024","A132065","-","-","-","4.0","Celsius","-","-","-","-","4.0","Celsius","-","-","-","-","","-",""
"CCCCCCCC[N+](CCCCCCCC)(CCCCCCCC)C.C([O-])(O)=O","-","-","AUTO_616","C0979_A0070","A132065","-","-","-","-7.0","Celsius","-","-","-","-","-7.0","Celsius","-","-","-","-","","-",""
"CCCCCCCC[N+](CCCCCCCC)(CCCCCCCC)C.CC=CC([O-])=O","-","-","AUTO_617","C0979_A0047","A132065","-","-","-","18.0","Celsius","-","-","-","-","18.0","Celsius","-","-","-","-","","-",""
"CCCCCCCC[N+]12CCN(CC1)CC2.C(F)(F)(F)S(=O)(=O)[N-]S(=O)(=O)C(F)(F)F","-","-","AUTO_618","C0176_A0048","A132065","-","-","-","26.0","Celsius","-","-","-","-","26.0","Celsius","-","-","-","-","","-",""
"CCC[NH+](CCC)CCC.FC(F)(F)C(=O)[CH-]C(=O)C(F)(F)F","-","-","AUTO_619","C0623_A0010","A132065","-","-","-","-10.0","Celsius","-","-","-","-","-10.0","Celsius","-","-","-","-","","-",""
"CCC[NH+](CCC)CCC.CC(C)(C)C(=O)[CH-]C(=O)C(F)(F)C(F)(F)C(F)(F)F","-","-","AUTO_620","C0623_A0037","A132065","-","-","-","-83.0","Celsius","-","-","-","-","-83.0","Celsius","-","-","-","-","","-",""
"CCC[NH+](CCC)CCC.FC(F)(F)C(=O)[CH-]C(=O)C1=CC=CO1","-","-","AUTO_621","C0623_A0036","A132065","-","-","-","-82.0","Celsius","-","-","-","-","-82.0","Celsius","-","-","-","-","","-",""
"CCC[NH+](CCC)CCC.FC(F)(F)C(=O)[CH-]C(=O)C1=CC=CS1","-","-","AUTO_622","C0623_A0005","A132065","-","-","-","-65.0","Celsius","-","-","-","-","-65.0","Celsius","-","-","-","-","","-",""
"CCCC[NH+](CCCC)CCCC.[N+](=O)([O-])[O-]","-","-","AUTO_623","C0932_A0090","A132065","-","-","-","22.0","Celsius","-","-","-","-","22.0","Celsius","-","-","-","-","","-",""
"CCCC[NH+](CCCC)CCCC.FC(F)(F)C(=O)[CH-]C(=O)C(F)(F)F","-","-","AUTO_624","C0932_A0010","A132065","-","-","-","-93.0","Celsius","-","-","-","-","-93.0","Celsius","-","-","-","-","","-",""
"CCCC[NH+](CCCC)CCCC.CC(C)(C)C(=O)[CH-]C(=O)C(F)(F)C(F)(F)C(F)(F)F","-","-","AUTO_625","C0932_A0037","A132065","-","-","-","-65.0","Celsius","-","-","-","-","-65.0","Celsius","-","-","-","-","","-",""
"CCCC[NH+](CCCC)CCCC.FC(F)(F)C(=O)[CH-]C(=O)C1=CC=CO1","-","-","AUTO_626","C0932_A0036","A132065","-","-","-","-65.0","Celsius","-","-","-","-","-65.0","Celsius","-","-","-","-","","-",""
"CCCC[NH+](CCCC)CCCC.FC(F)(F)C(=O)[CH-]C(=O)C1=CC=CS1","-","-","AUTO_627","C0932_A0005","A132065","-","-","-","52.0","Celsius","-","-","-","-","52.0","Celsius","-","-","-","-","","-",""
"CC(CCCCC[NH+](CCCCCC(C)C)CCCCCC(C)C)C.FC(F)(F)C(=O)[CH-]C(=O)C(F)(F)F","-","-","AUTO_628","C0134_A0010","A132065","-","-","-","-11.0","Celsius","-","-","-","-","-11.0","Celsius","-","-","-","-","","-",""
"CC(CCCCC[NH+](CCCCCC(C)C)CCCCCC(C)C)C.CC(C)(C)C(=O)[CH-]C(=O)C(F)(F)C(F)(F)C(F)(F)F","-","-","AUTO_629","C0134_A0037","A132065","-","-","-","-96.0","Celsius","-","-","-","-","-96.0","Celsius","-","-","-","-","","-",""
"CC(CCCCC[NH+](CCCCCC(C)C)CCCCCC(C)C)C.FC(F)(F)C(=O)[CH-]C(=O)C1=CC=CO1","-","-","AUTO_630","C0134_A0036","A132065","-","-","-","-92.0","Celsius","-","-","-","-","-92.0","Celsius","-","-","-","-","","-",""
"CC(CCCCC[NH+](CCCCCC(C)C)CCCCCC(C)C)C.FC(F)(F)C(=O)[CH-]C(=O)C1=CC=CS1","-","-","AUTO_631","C0134_A0005","A132065","-","-","-","-86.0","Celsius","-","-","-","-","-86.0","Celsius","-","-","-","-","","-",""
"CCC[NH2+]CCC.FC(F)(F)C(=O)[CH-]C(=O)C(F)(F)F","-","-","AUTO_632","C0036_A0010","A132065","-","-","-","97.0","Celsius","-","-","-","-","97.0","Celsius","-","-","-","-","","-",""
"CCC[NH2+]CCC.FC(F)(F)C(=O)[CH-]C(=O)C1=CC=CS1","-","-","AUTO_633","C0036_A0005","A132065","-","-","-","103.0","Celsius","-","-","-","-","103.0","Celsius","-","-","-","-","","-",""
"CCC[NH2+]CCC.[S-]C#N","-","-","AUTO_634","C0036_A0015","A132065","-","-","-","6.0","Celsius","-","-","-","-","6.0","Celsius","-","-","-","-","","-",""
"CC([NH2+]C(C)C)C.CC(C)(C)C(=O)[CH-]C(=O)C(F)(F)C(F)(F)C(F)(F)F","-","-","AUTO_635","C0903_A0037","A132065","-","-","-","91.0","Celsius","-","-","-","-","91.0","Celsius","-","-","-","-","","-",""
"CC([NH2+]C(C)C)C.FC(F)(F)C(=O)[CH-]C(=O)C1=CC=CS1","-","-","AUTO_636","C0903_A0005","A132065","-","-","-","124.0","Celsius","-","-","-","-","124.0","Celsius","-","-","-","-","","-",""
"CCCC[NH2+]CCCC.FC(F)(F)C(=O)[CH-]C(=O)C(F)(F)F","-","-","AUTO_637","C0287_A0010","A132065","-","-","-","84.0","Celsius","-","-","-","-","84.0","Celsius","-","-","-","-","","-",""
"CCCC[NH2+]CCCC.FC(F)(F)C(=O)[CH-]C(=O)C1=CC=CS1","-","-","AUTO_638","C0287_A0005","A132065","-","-","-","71.0","Celsius","-","-","-","-","71.0","Celsius","-","-","-","-","","-",""
"CC(C[NH2+]CC(C)C)C.CC(C)(C)C(=O)[CH-]C(=O)C(F)(F)C(F)(F)C(F)(F)F","-","-","AUTO_639","C0779_A0037","A132065","-","-","-","63.0","Celsius","-","-","-","-","63.0","Celsius","-","-","-","-","","-",""
"CC(C[NH2+]CC(C)C)C.FC(F)(F)C(=O)[CH-]C(=O)C1=CC=CS1","-","-","AUTO_640","C0779_A0005","A132065","-","-","-","140.0","Celsius","-","-","-","-","140.0","Celsius","-","-","-","-","","-",""
"CC[N+]12CCN(CC1)CC2.C(F)(F)(F)S(=O)(=O)[N-]S(=O)(=O)C(F)(F)F","-","-","AUTO_641","C0868_A0048","A132065","-","-","-","76.0","Celsius","-","-","-","-","76.0","Celsius","-","-","-","-","","-",""
"CC[NH+](CC)CC.C(F)(F)(F)S(=O)(=O)[N-]S(=O)(=O)C(F)(F)F","-","-","AUTO_642","C0473_A0048","A132065","-","-","-","3.0","Celsius","-","-","-","-","3.0","Celsius","-","-","-","-","","-",""
"CC[NH3+].C(F)(F)(F)S(=O)(=O)[N-]S(=O)(=O)C(F)(F)F","-","-","AUTO_643","C0843_A0048","A132065","-","-","-","48.0","Celsius","-","-","-","-","48.0","Celsius","-","-","-","-","","-",""
"CC[NH3+].[N+](=O)([O-])[O-]","-","-","AUTO_644","C0843_A0090","A132065","-","-","-","9.0","Celsius","-","-","-","-","9.0","Celsius","-","-","-","-","","-",""
"CC[NH3+].S(=O)(=O)(O)[O-]","-","-","AUTO_645","C0843_A0017","A132065","-","-","-","40.0","Celsius","-","-","-","-","40.0","Celsius","-","-","-","-","","-",""
"CC[NH3+].CC(=O)[O-]","-","-","AUTO_646","C0843_A0087","A132065","-","-","-","87.0","Celsius","-","-","-","-","87.0","Celsius","-","-","-","-","","-",""
"CC[NH3+].C(=O)[O-]","-","-","AUTO_647","C0843_A0024","A132065","-","-","-","-15.0","Celsius","-","-","-","-","-15.0","Celsius","-","-","-","-","","-",""
"N#CC[N+](C)(C)C.C(F)(F)(F)S(=O)(=O)[N-]S(=O)(=O)C(F)(F)F","-","-","AUTO_648","C0688_A0048","A132065","-","-","-","35.0","Celsius","-","-","-","-","35.0","Celsius","-","-","-","-","","-",""
"OCC[NH3+].[N+](=O)([O-])[O-]","-","-","AUTO_649","C0449_A0090","A132065","-","-","-","51.0","Celsius","-","-","-","-","51.0","Celsius","-","-","-","-","","-",""
"OCC[NH3+].COS(=O)(=O)[O-]","-","-","AUTO_651","C0449_A0044","A132065","-","-","-","99.0","Celsius","-","-","-","-","99.0","Celsius","-","-","-","-","","-",""
"CCCCC[N+](CCCCC)(C)C.[Br-]","-","-","AUTO_652","C0818_A0004","A132065","-","-","-","76.0","Celsius","-","-","-","-","76.0","Celsius","-","-","-","-","","-",""
"CCCCC[N+](CCCCC)(C)C.[I-]","-","-","AUTO_653","C0818_A0069","A132065","-","-","-","86.0","Celsius","-","-","-","-","86.0","Celsius","-","-","-","-","","-",""
"CCCCCC[N+](CCCCCC)(C)C.[Br-]","-","-","AUTO_654","C0332_A0004","A132065","-","-","-","54.0","Celsius","-","-","-","-","54.0","Celsius","-","-","-","-","","-",""
"CCCCCC[N+](CCCCCC)(C)C.[I-]","-","-","AUTO_655","C0332_A0069","A132065","-","-","-","45.0","Celsius","-","-","-","-","45.0","Celsius","-","-","-","-","","-",""
"CCCCC[N+](CCCCC)(CC)CC.[Br-]","-","-","AUTO_656","C0813_A0004","A132065","-","-","-","58.0","Celsius","-","-","-","-","58.0","Celsius","-","-","-","-","","-",""
"CCCCC[N+](CCCCC)(CC)CC.[I-]","-","-","AUTO_657","C0813_A0069","A132065","-","-","-","95.0","Celsius","-","-","-","-","95.0","Celsius","-","-","-","-","","-",""
"CCCCCC[N+](CCCCCC)(CC)CC.[Br-]","-","-","AUTO_658","C0822_A0004","A132065","-","-","-","75.0","Celsius","-","-","-","-","75.0","Celsius","-","-","-","-","","-",""
"CCCCCC[N+](CCCCCC)(CC)CC.[I-]","-","-","AUTO_659","C0822_A0069","A132065","-","-","-","73.0","Celsius","-","-","-","-","73.0","Celsius","-","-","-","-","","-",""
"O=C1CCCCC[NH2+]1.[N+](=O)([O-])[O-]","-","-","AUTO_660","C0225_A0090","A132065","-","-","-","45.0","Celsius","-","-","-","-","45.0","Celsius","-","-","-","-","","-",""
"O=C1CCCCC[NH2+]1.C(C1=CC=CC=C1)(=O)[O-]","-","-","AUTO_661","C0225_A0031","A132065","-","-","-","31.0","Celsius","-","-","-","-","31.0","Celsius","-","-","-","-","","-",""
"O=C1CCCCC[NH2+]1.[O-]C(=O)CCl","-","-","AUTO_662","C0225_A0089","A132065","-","-","-","29.0","Celsius","-","-","-","-","29.0","Celsius","-","-","-","-","","-",""
"CCCC(=O)OCC[N+](C)(C)C.O=C1[N-]S(=O)(=O)C2=CC=CC=C12","-","-","AUTO_663","C0230_A0007","A132065","-","-","-","89.0","Celsius","-","-","-","-","89.0","Celsius","-","-","-","-","","-",""
"CCCC(=O)OCC[N+](C)(C)C.CC1=CC(=O)[N-]S(=O)(=O)O1","-","-","AUTO_664","C0230_A0049","A132065","-","-","-","49.0","Celsius","-","-","-","-","49.0","Celsius","-","-","-","-","","-",""
"OCC[N+](C)(C)C.P(=O)(O)(O)[O-]","-","-","AUTO_665","C0482_A0012","A132065","-","-","-","119.0","Celsius","-","-","-","-","119.0","Celsius","-","-","-","-","","-",""
"O=C1CCC[NH2+]1.[N+](=O)([O-])[O-]","-","-","AUTO_666","C0873_A0090","A132065","-","-","-","8.0","Celsius","-","-","-","-","8.0","Celsius","-","-","-","-","","-",""
"O=C1CCC[NH2+]1.C(C1=CC=CC=C1)(=O)[O-]","-","-","AUTO_667","C0873_A0031","A132065","-","-","-","7.0","Celsius","-","-","-","-","7.0","Celsius","-","-","-","-","","-",""
"O=C1CCC[NH2+]1.[O-]C(=O)CCl","-","-","AUTO_668","C0873_A0089","A132065","-","-","-","32.0","Celsius","-","-","-","-","32.0","Celsius","-","-","-","-","","-",""
"CCCCCCCCCC[N+](CCCCCCCCCC)(C)C.F[B-](F)(F)F","-","-","AUTO_669","C0514_A0020","A132065","-","-","-","28.0","Celsius","-","-","-","-","28.0","Celsius","-","-","-","-","","-",""
"CCCCCCCCCC[N+](CCCCCCCCCC)(C)C.N(=O)[O-]","-","-","AUTO_670","C0514_A0062","A132065","-","-","-","-2.0","Celsius","-","-","-","-","-2.0","Celsius","-","-","-","-","","-",""
"CCCCCCCCCCCCC[N+](CC1=CC=CC=C1)(C)C.F[B-](F)(F)F","-","-","AUTO_671","C0358_A0020","A132065","-","-","-","56.0","Celsius","-","-","-","-","56.0","Celsius","-","-","-","-","","-",""
"CCCCCCCCCCCCC[N+](CC1=CC=CC=C1)(C)C.[N+](=O)([O-])[O-]","-","-","AUTO_672","C0358_A0090","A132065","-","-","-","36.0","Celsius","-","-","-","-","36.0","Celsius","-","-","-","-","","-",""
"CC(CC(C1=CC=C(C=C1)OCCOCC[N+](CC2=CC=CC=C2)(C)C)(C)C)(C)C.[N+](=O)([O-])[O-]","-","-","AUTO_673","C0745_A0090","A132065","-","-","-","85.0","Celsius","-","-","-","-","85.0","Celsius","-","-","-","-","","-",""
"OS(=O)(=O)CCCC[N+](C)(C)C.S(=O)(=O)(O)[O-]","-","-","AUTO_674","C0329_A0017","A132065","-","-","-","-11.0","Celsius","-","-","-","-","-11.0","Celsius","-","-","-","-","","-",""
"C[NH3+].C(=O)[O-]","-","-","AUTO_675","C0679_A0024","A132065","-","-","-","13.0","Celsius","-","-","-","-","13.0","Celsius","-","-","-","-","","-",""
"CCC[NH3+].[N+](=O)([O-])[O-]","-","-","AUTO_676","C0647_A0090","A132065","-","-","-","4.0","Celsius","-","-","-","-","4.0","Celsius","-","-","-","-","","-",""
"CCC[NH3+].FC(C(=O)[O-])(F)F","-","-","AUTO_677","C0647_A0064","A132065","-","-","-","67.0","Celsius","-","-","-","-","67.0","Celsius","-","-","-","-","","-",""
"CCC[NH3+].C(=O)[O-]","-","-","AUTO_678","C0647_A0024","A132065","-","-","-","50.0","Celsius","-","-","-","-","50.0","Celsius","-","-","-","-","","-",""
"CCCC[NH3+].C(=O)[O-]","-","-","AUTO_679","C0600_A0024","A132065","-","-","-","2.0","Celsius","-","-","-","-","2.0","Celsius","-","-","-","-","","-",""
"CCCC[NH3+].[S-]C#N","-","-","AUTO_680","C0600_A0015","A132065","-","-","-","21.0","Celsius","-","-","-","-","21.0","Celsius","-","-","-","-","","-",""
"CCCCC[NH3+].C(=O)[O-]","-","-","AUTO_681","C0546_A0024","A132065","-","-","-","12.0","Celsius","-","-","-","-","12.0","Celsius","-","-","-","-","","-",""
"[NH3+]CC(C)C.C(=O)[O-]","-","-","AUTO_682","C0511_A0024","A132065","-","-","-","26.0","Celsius","-","-","-","-","26.0","Celsius","-","-","-","-","","-",""
"CCC(C[NH3+])C.C(=O)[O-]","-","-","AUTO_683","C0040_A0024","A132065","-","-","-","-1.0","Celsius","-","-","-","-","-1.0","Celsius","-","-","-","-","","-",""
"[NH3+]CCC(C)C.C(=O)[O-]","-","-","AUTO_684","C0603_A0024","A132065","-","-","-","47.0","Celsius","-","-","-","-","47.0","Celsius","-","-","-","-","","-",""
"C[N+](CCCS(=O)(=O)O)(C)C.S(=O)(=O)(O)[O-]","-","-","AUTO_685","C0488_A0017","A132065","-","-","-","-12.0","Celsius","-","-","-","-","-12.0","Celsius","-","-","-","-","","-",""
"CC[N+](CCCS(=O)(=O)O)(CC)CC.S(=O)(=O)(O)[O-]","-","-","AUTO_686","C0157_A0017","A132065","-","-","-","-9.0","Celsius","-","-","-","-","-9.0","Celsius","-","-","-","-","","-",""
"CCCC[N+](CCCC)(CCCC)CCCS(=O)(=O)O.S(=O)(=O)(O)[O-]","-","-","AUTO_687","C0016_A0017","A132065","-","-","-","-7.0","Celsius","-","-","-","-","-7.0","Celsius","-","-","-","-","","-",""
"CC[N+](CC1=CC=CC=C1)(CC)CC.C(#N)[N-]C#N","-","-","AUTO_688","C0695_A0056","A132065","-","-","-","83.0","Celsius","-","-","-","-","83.0","Celsius","-","-","-","-","","-",""
"CC[N+](CC1=CC=CC=C1)(CC)CC.FC(S(=O)(=O)[O-])(F)F","-","-","AUTO_689","C0695_A0084","A132065","-","-","-","109.0","Celsius","-","-","-","-","109.0","Celsius","-","-","-","-","","-",""
"CC[N+](CC1=CC=CC=C1)(CC)CC.O=C1[N-]S(=O)(=O)C2=CC=CC=C12","-","-","AUTO_690","C0695_A0007","A132065","-","-","-","151.0","Celsius","-","-","-","-","151.0","Celsius","-","-","-","-","","-",""
"CC[N+](CC1=CC=CC=C1)(CC)CC.[S-]C#N","-","-","AUTO_691","C0695_A0015","A132065","-","-","-","88.0","Celsius","-","-","-","-","88.0","Celsius","-","-","-","-","","-",""
"C[N+](C1=CC=CC=C1)(C)C.C(#N)[N-]C#N","-","-","AUTO_692","C1056_A0056","A132065","-","-","-","117.0","Celsius","-","-","-","-","117.0","Celsius","-","-","-","-","","-",""
"C[N+](C1=CC=CC=C1)(C)C.FC(S(=O)(=O)[O-])(F)F","-","-","AUTO_693","C1056_A0084","A132065","-","-","-","83.0","Celsius","-","-","-","-","83.0","Celsius","-","-","-","-","","-",""
"C[N+](C1=CC=CC=C1)(C)C.S(=O)(=O)([O-])C1=CC=C(C)C=C1","-","-","AUTO_694","C1056_A0030","A132065","-","-","-","150.0","Celsius","-","-","-","-","150.0","Celsius","-","-","-","-","","-",""