"SMILES","CASRN","EXTERNALID","N","NAME","ARTICLEID","PUBMEDID","PAGE","TABLE","Melting Point","UNIT {Melting Point}","Decomposition","UNIT {Decomposition}","Glass-transition temperature (Tg)","UNIT {Glass-transition temperature (Tg)}","Melting Point {measured, converted}","UNIT {Melting Point}","Decomposition {measured, converted}","UNIT {Decomposition}","Glass-transition temperature (Tg) {measured, converted}","UNIT {Glass-transition temperature (Tg)}","weight loss","UNIT {weight loss}","Solvent"
"CCCCCCCCCCN1C=C[N+](C)=C1.FC(F)(F)C(F)(F)S(=O)(=O)[N-]S(=O)(=O)C(F)(F)C(F)(F)F","-","-","AUTO_483","-","A138128","-","-","-","285.7","K","-","-","-","-","12.7","Celsius","-","-","-","-","","-",""
"CCCCCCCCCCCCCCCCCCN1C=C[N+](C)=C1.FC(F)(F)C(F)(F)S(=O)(=O)[N-]S(=O)(=O)C(F)(F)C(F)(F)F","-","-","AUTO_484","-","A138128","-","-","-","288.45","K","-","-","-","-","15.45","Celsius","-","-","-","-","","-",""
"CCCC[N+]1=CC=CC=C1.FC(F)(F)C(F)(F)S(=O)(=O)[N-]S(=O)(=O)C(F)(F)C(F)(F)F","-","-","AUTO_485","-","A138128","-","-","-","322.2","K","-","-","-","-","49.2","Celsius","-","-","-","-","","-",""
"CCCC[N+]1=CC(C)=CC(C)=C1.FC(F)(F)C(F)(F)S(=O)(=O)[N-]S(=O)(=O)C(F)(F)C(F)(F)F","-","-","AUTO_486","-","A138128","-","-","-","291.7","K","-","-","-","-","18.7","Celsius","-","-","-","-","","-",""
"CCCCCCCC[N+]1=CC=C(C)C=C1.FC(F)(F)C(F)(F)S(=O)(=O)[N-]S(=O)(=O)C(F)(F)C(F)(F)F","-","-","AUTO_487","-","A138128","-","-","-","275.2","K","-","-","-","-","2.2","Celsius","-","-","-","-","","-",""
"CCCC[N+](CCCC)(CCCC)CCCC.FC(F)(F)C(F)(F)S(=O)(=O)[N-]S(=O)(=O)C(F)(F)C(F)(F)F","-","-","AUTO_489","-","A138128","-","-","-","423.2","K","-","-","-","-","150.2","Celsius","-","-","-","-","","-",""
"COCC[N+]1(C)CCCC1.FC(F)(F)C(F)(F)S(=O)(=O)[N-]S(=O)(=O)C(F)(F)C(F)(F)F","-","-","AUTO_491","-","A138128","-","-","-","281.0","K","-","-","-","-","8.0","Celsius","-","-","-","-","","-",""
"CCCC[P+](CCCC)(CCCC)CCCC.FC(F)(F)C(F)(F)S(=O)(=O)[N-]S(=O)(=O)C(F)(F)C(F)(F)F","-","-","AUTO_492","-","A138128","-","-","-","418.2","K","-","-","-","-","145.2","Celsius","-","-","-","-","","-",""
"CCCCCCCCCCCCCC[P+](CCCCCC)(CCCCCC)CCCCCC.FC(F)(F)C(F)(F)S(=O)(=O)[N-]S(=O)(=O)C(F)(F)C(F)(F)F","-","-","AUTO_493","-","A138128","-","-","-","271.2","K","-","-","-","-","-1.8","Celsius","-","-","-","-","","-",""
"CN1C=C[N+](C)=C1.[O-][N+]([O-])=O","-","-","AUTO_496","-","A138128","-","-","-","350.7","K","-","-","-","-","77.7","Celsius","-","-","-","-","","-",""
"CCCCN1C=C[N+](C)=C1.[O-][N+]([O-])=O","-","-","AUTO_498","-","A138128","-","-","-","275.3","K","-","-","-","-","2.3","Celsius","-","-","-","-","","-",""
"OCC[NH2+]CCO.[O-][N+]([O-])=O","-","-","AUTO_510","-","A138128","-","-","-","345.2","K","-","-","-","-","72.2","Celsius","-","-","-","-","","-",""
"COCC[NH3+].[O-][N+]([O-])=O","-","-","AUTO_512","-","A138128","-","-","-","310.2","K","-","-","-","-","37.2","Celsius","-","-","-","-","","-",""
"CCOC(=O)[C@@H](C)[NH3+].[O-][N+]([O-])=O","-","-","AUTO_515","-","A138128","-","-","-","256.2","K","-","-","-","-","-16.8","Celsius","-","-","-","-","","-",""
"COC(=O)[C@H]([NH3+])CC(C)C.[O-][N+]([O-])=O","-","-","AUTO_516","-","A138128","-","-","-","348.2","K","-","-","-","-","75.2","Celsius","-","-","-","-","","-",""
"COC(=O)[C@H]([NH3+])[C@@H](C)O.[O-][N+]([O-])=O","-","-","AUTO_518","-","A138128","-","-","-","261.2","K","-","-","-","-","-11.8","Celsius","-","-","-","-","","-",""
"C1CC[NH2+]C1.[O-][N+]([O-])=O","-","-","AUTO_520","-","A138128","-","-","-","258.2","K","-","-","-","-","-14.8","Celsius","-","-","-","-","","-",""
"C[N+]1(CC=C)CCCC1.[O-][N+]([O-])=O","-","-","AUTO_521","-","A138128","-","-","-","283.2","K","-","-","-","-","10.2","Celsius","-","-","-","-","","-",""
"CCCN(C)C(N(C)C)=[N+](C)C.[O-][N+]([O-])=O","-","-","AUTO_522","-","A138128","-","-","-","482.2","K","-","-","-","-","209.2","Celsius","-","-","-","-","","-",""
"C[S+]1CCCC1.[O-][N+]([O-])=O","-","-","AUTO_525","-","A138128","-","-","-","389.2","K","-","-","-","-","116.2","Celsius","-","-","-","-","","-",""
"CC[S+]1CCCC1.[O-][N+]([O-])=O","-","-","AUTO_526","-","A138128","-","-","-","291.2","K","-","-","-","-","18.2","Celsius","-","-","-","-","","-",""
"CCCC[S+]1CCCC1.[O-][N+]([O-])=O","-","-","AUTO_527","-","A138128","-","-","-","327.2","K","-","-","-","-","54.2","Celsius","-","-","-","-","","-",""
"CC[N+](C)(C)N.[O-][N+](=O)[N-]C#N","-","-","AUTO_529","-","A138128","-","-","-","298.6","K","-","-","-","-","25.6","Celsius","-","-","-","-","","-",""
"CCCC[N+](C)(C)N.[O-][N+](=O)[N-]C#N","-","-","AUTO_530","-","A138128","-","-","-","282.2","K","-","-","-","-","9.2","Celsius","-","-","-","-","","-",""
"[NH3+]CCO.C[C@H](O)C([O-])=O","-","-","AUTO_531","-","A138128","-","-","-","214.6","K","-","-","-","-","-58.4","Celsius","-","-","-","-","","-",""
"OCC[NH+](CCO)CCO.C[C@H](O)C([O-])=O","-","-","AUTO_532","-","A138128","-","-","-","218.3","K","-","-","-","-","-54.7","Celsius","-","-","-","-","","-",""
"[NH3+]CCOCCO.C[C@H](O)C([O-])=O","-","-","AUTO_533","-","A138128","-","-","-","217.6","K","-","-","-","-","-55.4","Celsius","-","-","-","-","","-",""
"CCCCCCCCCCCCOC(=O)C[N+](C)(C)C.C[C@H](O)C([O-])=O","-","-","AUTO_534","-","A138128","-","-","-","312.2","K","-","-","-","-","39.2","Celsius","-","-","-","-","","-",""
"CCCCCCCCCCCCCCOC(=O)C[N+](C)(C)C.C[C@H](O)C([O-])=O","-","-","AUTO_535","-","A138128","-","-","-","321.2","K","-","-","-","-","48.2","Celsius","-","-","-","-","","-",""
"CCCCCCCCCCCCCCCCOC(=O)C[N+](C)(C)C.C[C@H](O)C([O-])=O","-","-","AUTO_536","-","A138128","-","-","-","331.2","K","-","-","-","-","58.2","Celsius","-","-","-","-","","-",""
"CCOC(=O)[C@@H](C)[NH3+].C[C@H](O)C([O-])=O","-","-","AUTO_538","-","A138128","-","-","-","348.2","K","-","-","-","-","75.2","Celsius","-","-","-","-","","-",""
"CN1C=[N+](CCC(F)(F)F)C=N1.[I-]","-","-","AUTO_543","-","A138128","-","-","-","371.2","K","-","-","-","-","98.2","Celsius","-","-","-","-","","-",""
"CCCCN1C=[N+](CCC(F)(F)F)C=N1.[I-]","-","-","AUTO_544","-","A138128","-","-","-","396.2","K","-","-","-","-","123.2","Celsius","-","-","-","-","","-",""
"CCCCCCCN1C=[N+](CCC(F)(F)F)C=N1.[I-]","-","-","AUTO_545","-","A138128","-","-","-","447.2","K","-","-","-","-","174.2","Celsius","-","-","-","-","","-",""
"CCCCCCCCCCN1C=[N+](CCC(F)(F)F)C=N1.[I-]","-","-","AUTO_546","-","A138128","-","-","-","465.2","K","-","-","-","-","192.2","Celsius","-","-","-","-","","-",""
"C[N+]1(CC=C)CCCC1.[I-]","-","-","AUTO_551","-","A138128","-","-","-","330.7","K","-","-","-","-","57.7","Celsius","-","-","-","-","","-",""
"CCCC[N+]1(C)CCCCCC1.[I-]","-","-","AUTO_554","-","A138128","-","-","-","360.2","K","-","-","-","-","87.2","Celsius","-","-","-","-","","-",""
"CCCCCC[N+]1(C)CCCCCC1.[I-]","-","-","AUTO_555","-","A138128","-","-","-","413.2","K","-","-","-","-","140.2","Celsius","-","-","-","-","","-",""
"COCC[N+]1(C)CCCCCC1.[I-]","-","-","AUTO_556","-","A138128","-","-","-","356.2","K","-","-","-","-","83.2","Celsius","-","-","-","-","","-",""
"COCCOCC[N+]1(C)CCCCCC1.[I-]","-","-","AUTO_557","-","A138128","-","-","-","344.2","K","-","-","-","-","71.2","Celsius","-","-","-","-","","-",""
"CC1=CC=[NH+]C=C1.OS([O-])(=O)=O","-","-","AUTO_560","-","A138128","-","-","-","254.3","K","-","-","-","-","-18.7","Celsius","-","-","-","-","","-",""
"CC[NH+](C)C.OS([O-])(=O)=O","-","-","AUTO_569","-","A138128","-","-","-","276.5","K","-","-","-","-","3.5","Celsius","-","-","-","-","","-",""
"CCCC[NH+](CCCC)CCCC.OS([O-])(=O)=O","-","-","AUTO_571","-","A138128","-","-","-","359.8","K","-","-","-","-","86.8","Celsius","-","-","-","-","","-",""
"CC(C)(C)[NH3+].OS([O-])(=O)=O","-","-","AUTO_573","-","A138128","-","-","-","403.8","K","-","-","-","-","130.8","Celsius","-","-","-","-","","-",""
"C1CC[NH2+]C1.OS([O-])(=O)=O","-","-","AUTO_574","-","A138128","-","-","-","243.2","K","-","-","-","-","-29.8","Celsius","-","-","-","-","","-",""
"C[NH+]1CCCC1.OS([O-])(=O)=O","-","-","AUTO_575","-","A138128","-","-","-","307.2","K","-","-","-","-","34.2","Celsius","-","-","-","-","","-",""
"CCCCCCCCCC[N+](C)(C)CCCCCCCCCC.C[C@@H](OC1=CC=C(Cl)C=C1Cl)C([O-])=O","-","-","AUTO_579","-","A138128","-","-","-","273.6","K","-","-","-","-","0.6","Celsius","-","-","-","-","","-",""
"CCCCCCCCCCCCCCCCCC[N+](C)(C)C.C[C@@H](OC1=CC=C(Cl)C=C1Cl)C([O-])=O","-","-","AUTO_580","-","A138128","-","-","-","261.0","K","-","-","-","-","-12.0","Celsius","-","-","-","-","","-",""
"C[N+](C)(C)CCO.C[C@@H](OC1=CC=C(Cl)C=C1Cl)C([O-])=O","-","-","AUTO_581","-","A138128","-","-","-","392.5","K","-","-","-","-","119.5","Celsius","-","-","-","-","","-",""
"COCC[NH3+].OP(O)([O-])=O","-","-","AUTO_589","-","A138128","-","-","-","363.7","K","-","-","-","-","90.7","Celsius","-","-","-","-","","-",""
"CCCC[N+](CCCC)(CCCC)CCCC.NCC([O-])=O","-","-","AUTO_591","-","A138128","-","-","-","289.2","K","-","-","-","-","16.2","Celsius","-","-","-","-","","-",""
"CCCC[N+]1(CC)CCCC1.FS(=O)(=O)[N-]S(F)(=O)=O","-","-","AUTO_594","-","A138128","-","-","-","237.2","K","-","-","-","-","-35.8","Celsius","-","-","-","-","","-",""
"COCC[N+]1(C)CCCC1.FS(=O)(=O)[N-]S(F)(=O)=O","-","-","AUTO_595","-","A138128","-","-","-","277.0","K","-","-","-","-","4.0","Celsius","-","-","-","-","","-",""
"CCCCCC[N+]1(C)CCOCC1.FS(=O)(=O)[N-]S(F)(=O)=O","-","-","AUTO_596","-","A138128","-","-","-","307.0","K","-","-","-","-","34.0","Celsius","-","-","-","-","","-",""
"CC(C)C[P+](C)(C)C.FS(=O)(=O)[N-]S(F)(=O)=O","-","-","AUTO_598","-","A138128","-","-","-","285.5","K","-","-","-","-","12.5","Celsius","-","-","-","-","","-",""
"[NH3+]CCOCCO.[O-]C=O","-","-","AUTO_613","-","A138128","-","-","-","198.3","K","-","-","-","-","-74.7","Celsius","-","-","-","-","","-",""
"COCC[NH3+].[O-]C=O","-","-","AUTO_614","-","A138128","-","-","-","250.8","K","-","-","-","-","-22.2","Celsius","-","-","-","-","","-",""
"COCC[NH2+]CCOC.[O-]C=O","-","-","AUTO_615","-","A138128","-","-","-","277.8","K","-","-","-","-","4.8","Celsius","-","-","-","-","","-",""
"C1COCC[NH2+]1.[O-]C=O","-","-","AUTO_617","-","A138128","-","-","-","279.0","K","-","-","-","-","6.0","Celsius","-","-","-","-","","-",""
"CC[NH+]1CCOCC1.[O-]C=O","-","-","AUTO_618","-","A138128","-","-","-","251.0","K","-","-","-","-","-22.0","Celsius","-","-","-","-","","-",""
"CN1C=C[N+](C)=C1.N#C[N-]C#N","-","-","AUTO_622","-","A138128","-","-","-","307.2","K","-","-","-","-","34.2","Celsius","-","-","-","-","","-",""
"CCCCN1C=C[N+](C)=C1C.N#C[N-]C#N","-","-","AUTO_625","-","A138128","-","-","-","299.2","K","-","-","-","-","26.2","Celsius","-","-","-","-","","-",""
"C[N+]=1C=CN(CCO)C1.N#C[N-]C#N","-","-","AUTO_627","-","A138128","-","-","-","223.2","K","-","-","-","-","-49.8","Celsius","-","-","-","-","","-",""
"C[N+]=1C=CN(CCO[N+]([O-])=O)C1.N#C[N-]C#N","-","-","AUTO_629","-","A138128","-","-","-","223.0","K","-","-","-","-","-50.0","Celsius","-","-","-","-","","-",""
"CC[N+]1=CC=CN1C.N#C[N-]C#N","-","-","AUTO_630","-","A138128","-","-","-","286.2","K","-","-","-","-","13.2","Celsius","-","-","-","-","","-",""
"COCC[N+]1=CC=CN1C.N#C[N-]C#N","-","-","AUTO_631","-","A138128","-","-","-","265.2","K","-","-","-","-","-7.8","Celsius","-","-","-","-","","-",""
"CC[N+]=1C=CSC1.N#C[N-]C#N","-","-","AUTO_632","-","A138128","-","-","-","330.2","K","-","-","-","-","57.2","Celsius","-","-","-","-","","-",""
"[O-][N+](=O)OCC[N+]1=CC=CC=C1.N#C[N-]C#N","-","-","AUTO_634","-","A138128","-","-","-","333.2","K","-","-","-","-","60.2","Celsius","-","-","-","-","","-",""
"CCCC[N+]1=CC=CC(C)=C1.N#C[N-]C#N","-","-","AUTO_635","-","A138128","-","-","-","278.0","K","-","-","-","-","5.0","Celsius","-","-","-","-","","-",""
"CCCC[N+]1=CC=C(C)C=C1.N#C[N-]C#N","-","-","AUTO_636","-","A138128","-","-","-","300.3","K","-","-","-","-","27.3","Celsius","-","-","-","-","","-",""
"OCC[N+]1=CC=CC=C1.N#C[N-]C#N","-","-","AUTO_639","-","A138128","-","-","-","224.3","K","-","-","-","-","-48.7","Celsius","-","-","-","-","","-",""
"CC[N+](C)(C)C.N#C[N-]C#N","-","-","AUTO_642","-","A138128","-","-","-","369.5","K","-","-","-","-","96.5","Celsius","-","-","-","-","","-",""
"CCCC[N+](C)(CCCC)CCCC.N#C[N-]C#N","-","-","AUTO_643","-","A138128","-","-","-","285.2","K","-","-","-","-","12.2","Celsius","-","-","-","-","","-",""
"CCCCC[N+](CC)(CC)CC.N#C[N-]C#N","-","-","AUTO_644","-","A138128","-","-","-","266.2","K","-","-","-","-","-6.8","Celsius","-","-","-","-","","-",""
"CCCCCC[N+](CC)(CC)CC.N#C[N-]C#N","-","-","AUTO_645","-","A138128","-","-","-","230.2","K","-","-","-","-","-42.8","Celsius","-","-","-","-","","-",""
"C[N+](C)(C)CCO.N#C[N-]C#N","-","-","AUTO_647","-","A138128","-","-","-","223.3","K","-","-","-","-","-49.7","Celsius","-","-","-","-","","-",""
"CCCCCCCCCCCCOC(=O)C[N+](C)(C)C.N#C[N-]C#N","-","-","AUTO_648","-","A138128","-","-","-","331.2","K","-","-","-","-","58.2","Celsius","-","-","-","-","","-",""
"C[N+](C)(C)CCCC#N.N#C[N-]C#N","-","-","AUTO_651","-","A138128","-","-","-","316.4","K","-","-","-","-","43.4","Celsius","-","-","-","-","","-",""
"CC[N+](C)(C)N.N#C[N-]C#N","-","-","AUTO_652","-","A138128","-","-","-","304.1","K","-","-","-","-","31.1","Celsius","-","-","-","-","","-",""
"CCCC[N+](C)(C)N.N#C[N-]C#N","-","-","AUTO_653","-","A138128","-","-","-","293.6","K","-","-","-","-","20.6","Celsius","-","-","-","-","","-",""
"C[N+](C)(C)CCO[N+]([O-])=O.N#C[N-]C#N","-","-","AUTO_654","-","A138128","-","-","-","223.1","K","-","-","-","-","-49.9","Celsius","-","-","-","-","","-",""
"C[N+]1(CCO)CCCC1.N#C[N-]C#N","-","-","AUTO_659","-","A138128","-","-","-","223.4","K","-","-","-","-","-49.6","Celsius","-","-","-","-","","-",""
"C[N+]1(CCO[N+]([O-])=O)CCCC1.N#C[N-]C#N","-","-","AUTO_660","-","A138128","-","-","-","223.3","K","-","-","-","-","-49.7","Celsius","-","-","-","-","","-",""
"CCCCN(C)C(N(C)C)=[N+](C)C.N#C[N-]C#N","-","-","AUTO_661","-","A138128","-","-","-","348.2","K","-","-","-","-","75.2","Celsius","-","-","-","-","","-",""
"CCCC[P+](CC)(CC)CC.N#C[N-]C#N","-","-","AUTO_662","-","A138128","-","-","-","278.2","K","-","-","-","-","5.2","Celsius","-","-","-","-","","-",""
"CCCC[P+](C)(CCCC)CCCC.N#C[N-]C#N","-","-","AUTO_663","-","A138128","-","-","-","279.1","K","-","-","-","-","6.1","Celsius","-","-","-","-","","-",""
"CCCCC[P+](CC)(CC)CC.N#C[N-]C#N","-","-","AUTO_664","-","A138128","-","-","-","261.2","K","-","-","-","-","-11.8","Celsius","-","-","-","-","","-",""
"C[S+]1CCCC1.N#C[N-]C#N","-","-","AUTO_666","-","A138128","-","-","-","286.2","K","-","-","-","-","13.2","Celsius","-","-","-","-","","-",""
"CN1C=C[N+](C)=C1.[O-]Cl(=O)(=O)=O","-","-","AUTO_669","-","A138128","-","-","-","337.2","K","-","-","-","-","64.2","Celsius","-","-","-","-","","-",""
"CCN1C=C[N+](C)=C1.[O-]Cl(=O)(=O)=O","-","-","AUTO_670","-","A138128","-","-","-","280.2","K","-","-","-","-","7.2","Celsius","-","-","-","-","","-",""
"CCCCN1C=C[N+](C)=C1.[O-]Cl(=O)(=O)=O","-","-","AUTO_671","-","A138128","-","-","-","338.2","K","-","-","-","-","65.2","Celsius","-","-","-","-","","-",""
"CC[NH3+].[O-]Cl(=O)(=O)=O","-","-","AUTO_672","-","A138128","-","-","-","425.1","K","-","-","-","-","152.1","Celsius","-","-","-","-","","-",""
"CCCCCCCCCCCCOC(=O)C[N+](C)(C)C.[O-]Cl(=O)(=O)=O","-","-","AUTO_673","-","A138128","-","-","-","357.2","K","-","-","-","-","84.2","Celsius","-","-","-","-","","-",""
"CCCCCCCCCCCCCCOC(=O)C[N+](C)(C)C.[O-]Cl(=O)(=O)=O","-","-","AUTO_674","-","A138128","-","-","-","367.2","K","-","-","-","-","94.2","Celsius","-","-","-","-","","-",""
"CCCCCCCCCCCCCCCCOC(=O)C[N+](C)(C)C.[O-]Cl(=O)(=O)=O","-","-","AUTO_675","-","A138128","-","-","-","372.2","K","-","-","-","-","99.2","Celsius","-","-","-","-","","-",""
"CCCN(C)C(N(C)C)=[N+](C)C.[O-]Cl(=O)(=O)=O","-","-","AUTO_676","-","A138128","-","-","-","541.2","K","-","-","-","-","268.2","Celsius","-","-","-","-","","-",""
"CCCCN(C)C(N(C)C)=[N+](C)C.[O-]Cl(=O)(=O)=O","-","-","AUTO_677","-","A138128","-","-","-","408.2","K","-","-","-","-","135.2","Celsius","-","-","-","-","","-",""
"CCCCSC1=[NH+]C=CN1C.[Cl-]","-","-","AUTO_681","-","A138128","-","-","-","365.2","K","-","-","-","-","92.2","Celsius","-","-","-","-","","-",""
"C=CCN1C=C[N+](CC=C)=C1.[Cl-]","-","-","AUTO_687","-","A138128","-","-","-","294.7","K","-","-","-","-","21.7","Celsius","-","-","-","-","","-",""
"C[N+](C)(C)CCCC#N.[Cl-]","-","-","AUTO_691","-","A138128","-","-","-","352.0","K","-","-","-","-","79.0","Celsius","-","-","-","-","","-",""
"CCCCCCCN1C=[N+](CCF)C=N1.[Br-]","-","-","AUTO_722","-","A138128","-","-","-","398.2","K","-","-","-","-","125.2","Celsius","-","-","-","-","","-",""
"CCCCCCCCCCN1C=[N+](CCF)C=N1.[Br-]","-","-","AUTO_723","-","A138128","-","-","-","402.2","K","-","-","-","-","129.2","Celsius","-","-","-","-","","-",""
"CCCC[N+]1=CC=C(C)C=C1.[Br-]","-","-","AUTO_725","-","A138128","-","-","-","351.2","K","-","-","-","-","78.2","Celsius","-","-","-","-","","-",""
"CCCC[N+]1=CC=C(C=C1)C#N.[Br-]","-","-","AUTO_737","-","A138128","-","-","-","485.2","K","-","-","-","-","212.2","Celsius","-","-","-","-","","-",""
"CCCC[N+]1=CC=CC(=C1)C#N.[Br-]","-","-","AUTO_738","-","A138128","-","-","-","429.2","K","-","-","-","-","156.2","Celsius","-","-","-","-","","-",""
"CCCCCC[N+]1=CC=C(C=C1)C#N.[Br-]","-","-","AUTO_739","-","A138128","-","-","-","469.2","K","-","-","-","-","196.2","Celsius","-","-","-","-","","-",""
"CCCCCCCC[N+]1=CC=C(C=C1)C#N.[Br-]","-","-","AUTO_740","-","A138128","-","-","-","435.2","K","-","-","-","-","162.2","Celsius","-","-","-","-","","-",""
"CCC[N+]1(C)CCCC1.[Br-]","-","-","AUTO_748","-","A138128","-","-","-","380.2","K","-","-","-","-","107.2","Celsius","-","-","-","-","","-",""
"C[N+]1(CC=C)CCCC1.[Br-]","-","-","AUTO_749","-","A138128","-","-","-","291.2","K","-","-","-","-","18.2","Celsius","-","-","-","-","","-",""
"CCCCC[N+]1(C)CCCCC1.[Br-]","-","-","AUTO_750","-","A138128","-","-","-","446.8","K","-","-","-","-","173.8","Celsius","-","-","-","-","","-",""
"C[N+]1(CC=C)CCCCC1.[Br-]","-","-","AUTO_751","-","A138128","-","-","-","334.2","K","-","-","-","-","61.2","Celsius","-","-","-","-","","-",""
"CCC[N+]1(C)CCOCC1.[Br-]","-","-","AUTO_754","-","A138128","-","-","-","453.9","K","-","-","-","-","180.9","Celsius","-","-","-","-","","-",""
"CCCC[N+]1(C)CCOCC1.[Br-]","-","-","AUTO_755","-","A138128","-","-","-","484.5","K","-","-","-","-","211.5","Celsius","-","-","-","-","","-",""
"CCCCC[N+]1(C)CCOCC1.[Br-]","-","-","AUTO_756","-","A138128","-","-","-","467.0","K","-","-","-","-","194.0","Celsius","-","-","-","-","","-",""
"C[N+]1(CC=C)CCOCC1.[Br-]","-","-","AUTO_757","-","A138128","-","-","-","353.2","K","-","-","-","-","80.2","Celsius","-","-","-","-","","-",""
"CC[N+]1(CC=C)CCOCC1.[Br-]","-","-","AUTO_758","-","A138128","-","-","-","348.2","K","-","-","-","-","75.2","Celsius","-","-","-","-","","-",""
"CC[N+](C)(C)COC.O=C1O[B-]2(OC1=O)OC(=O)C(=O)O2","-","-","AUTO_760","-","A138128","-","-","-","324.0","K","-","-","-","-","51.0","Celsius","-","-","-","-","","-",""
"CCOC[N+](C)(C)CC.O=C1O[B-]2(OC1=O)OC(=O)C(=O)O2","-","-","AUTO_761","-","A138128","-","-","-","319.9","K","-","-","-","-","46.9","Celsius","-","-","-","-","","-",""
"CCN1C=C[N+](C)=C1.F[B-](C#N)(C#N)C#N","-","-","AUTO_762","-","A138128","-","-","-","265.4","K","-","-","-","-","-7.6","Celsius","-","-","-","-","","-",""
"CCN1C=C[N+](C)=C1.F[B-](C#N)(C#N)C(F)(F)C(F)(F)F","-","-","AUTO_763","-","A138128","-","-","-","252.2","K","-","-","-","-","-20.8","Celsius","-","-","-","-","","-",""
"CCN1C=C[N+](C)=C1.F[B-](C#N)(C#N)C(F)(F)F","-","-","AUTO_764","-","A138128","-","-","-","243.2","K","-","-","-","-","-29.8","Celsius","-","-","-","-","","-",""
"CCC[N+]=1C=CN(C)C1C.F[B-](F)(F)F","-","-","AUTO_770","-","A138128","-","-","-","256.2","K","-","-","-","-","-16.8","Celsius","-","-","-","-","","-",""
"C/C=C/C[N+]=1C=CN(C)C1C.F[B-](F)(F)F","-","-","AUTO_777","-","A138128","-","-","-","217.2","K","-","-","-","-","-55.8","Celsius","-","-","-","-","","-",""
"[NH3+]CCO.F[B-](F)(F)F","-","-","AUTO_793","-","A138128","-","-","-","273.7","K","-","-","-","-","0.7","Celsius","-","-","-","-","","-",""
"CCCCCCOC(=O)C[N+](C)(C)C.F[B-](F)(F)F","-","-","AUTO_800","-","A138128","-","-","-","331.2","K","-","-","-","-","58.2","Celsius","-","-","-","-","","-",""