"SMILES","CASRN","EXTERNALID","N","NAME","ARTICLEID","PUBMEDID","PAGE","TABLE","Melting Point","UNIT {Melting Point}","Decomposition","UNIT {Decomposition}","Glass-transition temperature (Tg)","UNIT {Glass-transition temperature (Tg)}","Melting Point {measured, converted}","UNIT {Melting Point}","Decomposition {measured, converted}","UNIT {Decomposition}","Glass-transition temperature (Tg) {measured, converted}","UNIT {Glass-transition temperature (Tg)}","weight loss","UNIT {weight loss}","Solvent"
"BrCCC[N+]1=CC=C(C=C1)C.[Br-]","-","-","AUTO_1554","C0925_A0004","A132065","-","-","-","140.0","Celsius","-","-","-","-","140.0","Celsius","-","-","-","-","","-",""
"CC=C([C@H]([N+]1=CC=CC=C1)C)C.[Br-]","-","-","AUTO_1555","C1041_A0004","A132065","-","-","-","140.0","Celsius","-","-","-","-","140.0","Celsius","-","-","-","-","","-",""
"COC(=O)C1=CC=C[N+](=C1)C.[Br-]","-","-","AUTO_1556","C0328_A0004","A132065","-","-","-","141.0","Celsius","-","-","-","-","141.0","Celsius","-","-","-","-","","-",""
"N#CCC[N+]1=CC=CC(=C1)N.[Br-]","-","-","AUTO_1557","C0223_A0004","A132065","-","-","-","142.0","Celsius","-","-","-","-","142.0","Celsius","-","-","-","-","","-",""
"C[C@@H]([N+]1=CC=CC=C1)C(=O)C.[Br-]","-","-","AUTO_1558","C0338_A0004","A132065","-","-","-","144.0","Celsius","-","-","-","-","144.0","Celsius","-","-","-","-","","-",""
"N#CC[N+]1=CC(C)=CC(=C1)C.[Br-]","-","-","AUTO_1559","C0879_A0004","A132065","-","-","-","144.0","Celsius","-","-","-","-","144.0","Celsius","-","-","-","-","","-",""
"C[N+]1=CC=C(C(=C1)O)C.[Br-]","-","-","AUTO_1560","C1065_A0004","A132065","-","-","-","146.0","Celsius","-","-","-","-","146.0","Celsius","-","-","-","-","","-",""
"N#CCC[N+]1=CC=C(C=C1)C.[Br-]","-","-","AUTO_1561","C0325_A0004","A132065","-","-","-","147.0","Celsius","-","-","-","-","147.0","Celsius","-","-","-","-","","-",""
"N#CCC[N+]1=CC=CC=C1.[Br-]","-","-","AUTO_1562","C0965_A0004","A132065","-","-","-","149.0","Celsius","-","-","-","-","149.0","Celsius","-","-","-","-","","-",""
"C[N+]1=CC=CC=C1.[Br-]","-","-","AUTO_1563","C0599_A0004","A132065","-","-","-","150.0","Celsius","-","-","-","-","150.0","Celsius","-","-","-","-","","-",""
"C[N+]1=CC=CC(=C1)O.[Br-]","-","-","AUTO_1564","C0033_A0004","A132065","-","-","-","154.0","Celsius","-","-","-","-","154.0","Celsius","-","-","-","-","","-",""
"C=C[N+]1=CC=CC=C1.[Br-]","-","-","AUTO_1565","C0478_A0004","A132065","-","-","-","155.0","Celsius","-","-","-","-","155.0","Celsius","-","-","-","-","","-",""
"C1=CC=[N+](C=C1)C2=CC=CC=C2.[Br-]","-","-","AUTO_1566","C1020_A0004","A132065","-","-","-","155.0","Celsius","-","-","-","-","155.0","Celsius","-","-","-","-","","-",""
"OCC=C[N+]1=CC=CC=C1.[Br-]","-","-","AUTO_1567","C0167_A0004","A132065","-","-","-","157.0","Celsius","-","-","-","-","157.0","Celsius","-","-","-","-","","-",""
"C=C(C(=O)O)C[N+]1=CC=CC=C1.[Br-]","-","-","AUTO_1568","C1060_A0004","A132065","-","-","-","157.0","Celsius","-","-","-","-","157.0","Celsius","-","-","-","-","","-",""
"C1CC=C[C@@H](C1)[N+]2=CC=CC=C2.[Br-]","-","-","AUTO_1569","C0847_A0004","A132065","-","-","-","160.0","Celsius","-","-","-","-","160.0","Celsius","-","-","-","-","","-",""
"N#CCC[N+]1=CC(C)=CC(=C1)C.[Br-]","-","-","AUTO_1570","C0092_A0004","A132065","-","-","-","161.0","Celsius","-","-","-","-","161.0","Celsius","-","-","-","-","","-",""
"OC(=O)CCC[N+]1=CC=CC=C1.[Br-]","-","-","AUTO_1571","C0660_A0004","A132065","-","-","-","163.0","Celsius","-","-","-","-","163.0","Celsius","-","-","-","-","","-",""
"COC(=O)C1=CC=[N+](C=C1)C.[Br-]","-","-","AUTO_1572","C0327_A0004","A132065","-","-","-","164.0","Celsius","-","-","-","-","164.0","Celsius","-","-","-","-","","-",""
"N#CC1=CC=[N+](C=C1)CC.[Br-]","-","-","AUTO_1573","C0378_A0004","A132065","-","-","-","166.0","Celsius","-","-","-","-","166.0","Celsius","-","-","-","-","","-",""
"N#CC[N+]1=CC=CC=C1.[Br-]","-","-","AUTO_1574","C0364_A0004","A132065","-","-","-","167.0","Celsius","-","-","-","-","167.0","Celsius","-","-","-","-","","-",""
"OCC1=CC=CC=[N+]1C.[Br-]","-","-","AUTO_1575","C1121_A0004","A132065","-","-","-","168.0","Celsius","-","-","-","-","168.0","Celsius","-","-","-","-","","-",""
"C=C[N+]1=CC=C(C=C1)C.[Br-]","-","-","AUTO_1576","C0259_A0004","A132065","-","-","-","169.0","Celsius","-","-","-","-","169.0","Celsius","-","-","-","-","","-",""
"COC1=CC=[N+](C=C1)C(C)C.[Br-]","-","-","AUTO_1577","C0520_A0004","A132065","-","-","-","170.0","Celsius","-","-","-","-","170.0","Celsius","-","-","-","-","","-",""
"CC1=CC=[N+](C=C1)C.[Br-]","-","-","AUTO_1578","C0067_A0004","A132065","-","-","-","173.0","Celsius","-","-","-","-","173.0","Celsius","-","-","-","-","","-",""
"COC(=O)C[N+]1=CC=CC=C1.[Br-]","-","-","AUTO_1579","C0607_A0004","A132065","-","-","-","175.0","Celsius","-","-","-","-","175.0","Celsius","-","-","-","-","","-",""
"CCC[N+]1=CC=CC(=C1)C(=O)N.[Br-]","-","-","AUTO_1580","C1059_A0004","A132065","-","-","-","175.0","Celsius","-","-","-","-","175.0","Celsius","-","-","-","-","","-",""
"CC[N+]1=CC=C(C=C1)N(C)C.[Br-]","-","-","AUTO_1581","C0400_A0004","A132065","-","-","-","176.0","Celsius","-","-","-","-","176.0","Celsius","-","-","-","-","","-",""
"C#CC[N+]1=CC=C(C=C1)C.[Br-]","-","-","AUTO_1582","C0131_A0004","A132065","-","-","-","178.0","Celsius","-","-","-","-","178.0","Celsius","-","-","-","-","","-",""
"N#CC[N+]1=CC=C(C=C1)C.[Br-]","-","-","AUTO_1583","C0345_A0004","A132065","-","-","-","179.0","Celsius","-","-","-","-","179.0","Celsius","-","-","-","-","","-",""
"FCC[N+]1=CC=CC=C1.[Br-]","-","-","AUTO_1584","C0054_A0004","A132065","-","-","-","180.0","Celsius","-","-","-","-","180.0","Celsius","-","-","-","-","","-",""
"C[N+]1=CC=C(C=C1)C(=O)C.[Br-]","-","-","AUTO_1585","C0882_A0004","A132065","-","-","-","184.0","Celsius","-","-","-","-","184.0","Celsius","-","-","-","-","","-",""
"C=CC[N+]1=CC=C(C=C1)C=NO.[Br-]","-","-","AUTO_1586","C0642_A0004","A132065","-","-","-","185.0","Celsius","-","-","-","-","185.0","Celsius","-","-","-","-","","-",""
"NNC(=O)C[N+]1=CC=CC=C1.[Br-]","-","-","AUTO_1587","C0402_A0004","A132065","-","-","-","186.0","Celsius","-","-","-","-","186.0","Celsius","-","-","-","-","","-",""
"CC(=O)C[N+]1=CC=CC=C1.[Br-]","-","-","AUTO_1588","C0551_A0004","A132065","-","-","-","187.0","Celsius","-","-","-","-","187.0","Celsius","-","-","-","-","","-",""
"CC[N+]1=CC=C(C=C1)C(=O)N.[Br-]","-","-","AUTO_1589","C0650_A0004","A132065","-","-","-","188.0","Celsius","-","-","-","-","188.0","Celsius","-","-","-","-","","-",""
"OC(=O)C=C[N+]1=CC=CC=C1.[Br-]","-","-","AUTO_1590","C0109_A0004","A132065","-","-","-","189.0","Celsius","-","-","-","-","189.0","Celsius","-","-","-","-","","-",""
"C[C@@H]([N+]1=CC=CC=C1)C(=O)N.[Br-]","-","-","AUTO_1591","C0587_A0004","A132065","-","-","-","190.0","Celsius","-","-","-","-","190.0","Celsius","-","-","-","-","","-",""
"OC(=O)C=C[N+]1=CC=CC(=C1)C.[Br-]","-","-","AUTO_1592","C0935_A0004","A132065","-","-","-","191.0","Celsius","-","-","-","-","191.0","Celsius","-","-","-","-","","-",""
"ON=CC1=CC=CC=[N+]1CC=C.[Br-]","-","-","AUTO_1593","C0891_A0004","A132065","-","-","-","193.0","Celsius","-","-","-","-","193.0","Celsius","-","-","-","-","","-",""
"CC(=O)C[N+]1=CC=CC=C1C.[Br-]","-","-","AUTO_1594","C0108_A0004","A132065","-","-","-","196.0","Celsius","-","-","-","-","196.0","Celsius","-","-","-","-","","-",""
"ON=CC1=CC=CC=[N+]1CCO.[Br-]","-","-","AUTO_1595","C0631_A0004","A132065","-","-","-","199.0","Celsius","-","-","-","-","199.0","Celsius","-","-","-","-","","-",""
"N#CC[N+]1=CC=C(C=C1C)C.[Br-]","-","-","AUTO_1596","C0423_A0004","A132065","-","-","-","199.0","Celsius","-","-","-","-","199.0","Celsius","-","-","-","-","","-",""
"OC(=O)C[N+]1=CC=CC=C1.[Br-]","-","-","AUTO_1597","C0921_A0004","A132065","-","-","-","199.0","Celsius","-","-","-","-","199.0","Celsius","-","-","-","-","","-",""
"NC(=O)CC[N+]1=CC=CC=C1.[Br-]","-","-","AUTO_1598","C0922_A0004","A132065","-","-","-","199.0","Celsius","-","-","-","-","199.0","Celsius","-","-","-","-","","-",""
"NC(=O)C[N+]1=CC=CC=C1.[Br-]","-","-","AUTO_1599","C0274_A0004","A132065","-","-","-","200.0","Celsius","-","-","-","-","200.0","Celsius","-","-","-","-","","-",""
"CCCC[N+]1(C)CCCC1.C(F)(F)(F)S(=O)(=O)[N-]S(=O)(=O)C(F)(F)F","-","-","AUTO_1600","C0315_A0048","A132065","-","-","-","-5.0","Celsius","-","-","-","-","-5.0","Celsius","-","-","-","-","","-",""
"FC(CCC[N+]1(C)CCCC1)(F)F.C(F)(F)(F)S(=O)(=O)[N-]S(=O)(=O)C(F)(F)F","-","-","AUTO_1601","C1160_A0048","A132065","-","-","-","27.0","Celsius","-","-","-","-","27.0","Celsius","-","-","-","-","","-",""
"FC(CCC[N+]1(C)CCCCC1)(F)F.C(F)(F)(F)S(=O)(=O)[N-]S(=O)(=O)C(F)(F)F","-","-","AUTO_1602","C1161_A0048","A132065","-","-","-","26.0","Celsius","-","-","-","-","26.0","Celsius","-","-","-","-","","-",""
"CC[N+]=1C=CN(C1)C.C(C)OP(=O)(OCC)[O-]","-","-","AUTO_1603","C0460_A0091","A132065","-","-","-","20.0","Celsius","-","-","-","-","20.0","Celsius","-","-","-","-","","-",""
"OCC[NH2+]CCO.C(CCC)OP(=O)(OCCCC)[O-]","-","-","AUTO_1604","C1163_A0092","A132065","-","-","-","29.0","Celsius","-","-","-","-","29.0","Celsius","-","-","-","-","","-",""
"OCC[NH2+]CCO.S(C)(=O)(=O)[O-]","-","-","AUTO_1605","C1163_A0054","A132065","-","-","-","29.0","Celsius","-","-","-","-","29.0","Celsius","-","-","-","-","","-",""
"OCC[NH+](CCO)CCO.C(CCC)OP(=O)(OCCCC)[O-]","-","-","AUTO_1606","C1164_A0092","A132065","-","-","-","43.0","Celsius","-","-","-","-","43.0","Celsius","-","-","-","-","","-",""
"OCC[NH+](CCO)CCO.C(C)(=O)[O-]","-","-","AUTO_1607","C1164_A0087","A132065","-","-","-","48.0","Celsius","-","-","-","-","48.0","Celsius","-","-","-","-","","-",""
"OCC[NH+](CCO)CCO.C(=O)[O-]","-","-","AUTO_1608","C1164_A0024","A132065","-","-","-","63.0","Celsius","-","-","-","-","63.0","Celsius","-","-","-","-","","-",""
"OCC[NH+](CCO)CCO.S(C)(=O)(=O)[O-]","-","-","AUTO_1609","C1164_A0054","A132065","-","-","-","70.0","Celsius","-","-","-","-","70.0","Celsius","-","-","-","-","","-",""
"CCCC[NH2+]CCCC.C(CCC)OP(=O)(OCCCC)[O-]","-","-","AUTO_1610","C0287_A0092","A132065","-","-","-","63.0","Celsius","-","-","-","-","63.0","Celsius","-","-","-","-","","-",""
"CCCC[NH2+]CCCC.C(C)(=O)[O-]","-","-","AUTO_1611","C0287_A0087","A132065","-","-","-","45.0","Celsius","-","-","-","-","45.0","Celsius","-","-","-","-","","-",""
"CCCC[NH2+]CCCC.C(=O)[O-]","-","-","AUTO_1612","C0287_A0024","A132065","-","-","-","28.0","Celsius","-","-","-","-","28.0","Celsius","-","-","-","-","","-",""
"CCCC[NH2+]CCCC.S(C)(=O)(=O)[O-]","-","-","AUTO_1613","C0287_A0054","A132065","-","-","-","72.0","Celsius","-","-","-","-","72.0","Celsius","-","-","-","-","","-",""
"CCCC[NH2+]CCCC.S(N)([O-])(=O)=O","-","-","AUTO_1614","C0287_A0093","A132065","-","-","-","87.0","Celsius","-","-","-","-","87.0","Celsius","-","-","-","-","","-",""
"CCCC[NH2+]CCCC.O=C1[N-]S(=O)(=O)C2=CC=CC=C12","-","-","AUTO_1615","C0287_A0007","A132065","-","-","-","88.0","Celsius","-","-","-","-","88.0","Celsius","-","-","-","-","","-",""
"CCCC[NH+](CCCC)CCCC.S(C)(=O)(=O)[O-]","-","-","AUTO_1616","C0932_A0054","A132065","-","-","-","71.0","Celsius","-","-","-","-","71.0","Celsius","-","-","-","-","","-",""
"NCC[NH3+].C(CCC)OP(=O)(OCCCC)[O-]","-","-","AUTO_1617","C1165_A0092","A132065","-","-","-","-18.0","Celsius","-","-","-","-","-18.0","Celsius","-","-","-","-","","-",""
"NCC[NH3+].S(C)(=O)(=O)[O-]","-","-","AUTO_1618","C1165_A0054","A132065","-","-","-","55.0","Celsius","-","-","-","-","55.0","Celsius","-","-","-","-","","-",""
"CC[NH+](CC)CC.S(C)(=O)(=O)[O-]","-","-","AUTO_1619","C0473_A0054","A132065","-","-","-","24.0","Celsius","-","-","-","-","24.0","Celsius","-","-","-","-","","-",""
"CC[NH+](CC)CC.O=C1[N-]S(=O)(=O)C2=CC=CC=C12","-","-","AUTO_1620","C0473_A0007","A132065","-","-","-","72.0","Celsius","-","-","-","-","72.0","Celsius","-","-","-","-","","-",""
"CC[NH2+]CC.C(CCC)OP(=O)(OCCCC)[O-]","-","-","AUTO_1621","C1166_A0092","A132065","-","-","-","-7.0","Celsius","-","-","-","-","-7.0","Celsius","-","-","-","-","","-",""
"CC[NH2+]CC.C(C)(=O)[O-]","-","-","AUTO_1622","C1166_A0087","A132065","-","-","-","48.0","Celsius","-","-","-","-","48.0","Celsius","-","-","-","-","","-",""
"CC[NH2+]CC.C(=O)[O-]","-","-","AUTO_1623","C1166_A0024","A132065","-","-","-","36.0","Celsius","-","-","-","-","36.0","Celsius","-","-","-","-","","-",""
"CC[NH2+]CC.S(C)(=O)(=O)[O-]","-","-","AUTO_1624","C1166_A0054","A132065","-","-","-","45.0","Celsius","-","-","-","-","45.0","Celsius","-","-","-","-","","-",""
"CC[NH2+]CC.O=C1[N-]S(=O)(=O)C2=CC=CC=C12","-","-","AUTO_1625","C1166_A0007","A132065","-","-","-","78.0","Celsius","-","-","-","-","78.0","Celsius","-","-","-","-","","-",""
"[NH2+]1CCCC1.C(CCC)OP(=O)(OCCCC)[O-]","-","-","AUTO_1626","C1167_A0092","A132065","-","-","-","-4.0","Celsius","-","-","-","-","-4.0","Celsius","-","-","-","-","","-",""
"[NH2+]1CCCC1.C(C)(=O)[O-]","-","-","AUTO_1627","C1167_A0087","A132065","-","-","-","31.0","Celsius","-","-","-","-","31.0","Celsius","-","-","-","-","","-",""
"[NH2+]1CCCC1.C(=O)[O-]","-","-","AUTO_1628","C1167_A0024","A132065","-","-","-","11.0","Celsius","-","-","-","-","11.0","Celsius","-","-","-","-","","-",""
"[NH2+]1CCCC1.S(C)(=O)(=O)[O-]","-","-","AUTO_1629","C1167_A0054","A132065","-","-","-","122.0","Celsius","-","-","-","-","122.0","Celsius","-","-","-","-","","-",""
"[NH2+]1CCCC1.O=C1[N-]S(=O)(=O)C2=CC=CC=C12","-","-","AUTO_1630","C1167_A0007","A132065","-","-","-","33.0","Celsius","-","-","-","-","33.0","Celsius","-","-","-","-","","-",""
"CSC(=[NH2+])N.COS(=O)(=O)[O-]","-","-","AUTO_1631","C1169_A0044","A132065","-","-","-","36.0","Celsius","-","-","-","-","36.0","Celsius","-","-","-","-","","-",""
"C(C)SC(=[NH2+])N.[Br-]","-","-","AUTO_1632","C1170_A0004","A132065","-","-","-","87.0","Celsius","-","-","-","-","87.0","Celsius","-","-","-","-","","-",""
"C(C)SC(=[NH2+])N.C(F)(F)(F)S(=O)(=O)[N-]S(=O)(=O)C(F)(F)F","-","-","AUTO_1633","C1170_A0048","A132065","-","-","-","27.0","Celsius","-","-","-","-","27.0","Celsius","-","-","-","-","","-",""
"C(C)SC(=[NH+]C)NC.[Br-]","-","-","AUTO_1634","C1171_A0004","A132065","-","-","-","62.0","Celsius","-","-","-","-","62.0","Celsius","-","-","-","-","","-",""
"C(C)SC(=[NH+]C)NC.C(C)OS(=O)(=O)[O-]","-","-","AUTO_1635","C1171_A0083","A132065","-","-","-","32.0","Celsius","-","-","-","-","32.0","Celsius","-","-","-","-","","-",""
"C(C)SC(=[NH+]C)NC.C(F)(F)(F)S(=O)(=O)[N-]S(=O)(=O)C(F)(F)F","-","-","AUTO_1636","C1171_A0048","A132065","-","-","-","19.0","Celsius","-","-","-","-","19.0","Celsius","-","-","-","-","","-",""
"CCSC(=[N+](C)C)N(C)C.[Br-]","-","-","AUTO_1637","C0870_A0004","A132065","-","-","-","92.0","Celsius","-","-","-","-","92.0","Celsius","-","-","-","-","","-",""
"C(C)SC(=[NH+]CC)NCC.[Br-]","-","-","AUTO_1638","C1173_A0004","A132065","-","-","-","40.0","Celsius","-","-","-","-","40.0","Celsius","-","-","-","-","","-",""
"C(CCC)SC(=[NH2+])N.[Br-]","-","-","AUTO_1639","C1174_A0004","A132065","-","-","-","83.0","Celsius","-","-","-","-","83.0","Celsius","-","-","-","-","","-",""
"C(CCC)SC(=[NH2+])N.C(F)(F)(F)S(=O)(=O)[N-]S(=O)(=O)C(F)(F)F","-","-","AUTO_1640","C1174_A0048","A132065","-","-","-","49.0","Celsius","-","-","-","-","49.0","Celsius","-","-","-","-","","-",""
"C(CCC)SC(=[NH+]C)NC.[Br-]","-","-","AUTO_1641","C1175_A0004","A132065","-","-","-","60.0","Celsius","-","-","-","-","60.0","Celsius","-","-","-","-","","-",""
"C(CCC)SC(=[N+](C)C)N(C)C.[Br-]","-","-","AUTO_1642","C1176_A0004","A132065","-","-","-","82.0","Celsius","-","-","-","-","82.0","Celsius","-","-","-","-","","-",""
"C(CCCCC)SC(=[NH2+])N.[Br-]","-","-","AUTO_1643","C1177_A0004","A132065","-","-","-","86.0","Celsius","-","-","-","-","86.0","Celsius","-","-","-","-","","-",""
"C(CCCCC)SC(=[NH+]C)NC.[Br-]","-","-","AUTO_1644","C1178_A0004","A132065","-","-","-","95.0","Celsius","-","-","-","-","95.0","Celsius","-","-","-","-","","-",""
"C(CCCCC)SC(=[N+](C)C)N(C)C.[Br-]","-","-","AUTO_1645","C1179_A0004","A132065","-","-","-","73.0","Celsius","-","-","-","-","73.0","Celsius","-","-","-","-","","-",""
"C(CCCCC)SC(=[NH+]CC)NCC.[Br-]","-","-","AUTO_1646","C1180_A0004","A132065","-","-","-","49.0","Celsius","-","-","-","-","49.0","Celsius","-","-","-","-","","-",""
"C(CCCCCCC)SC(=[NH2+])N.[Br-]","-","-","AUTO_1647","C1181_A0004","A132065","-","-","-","96.0","Celsius","-","-","-","-","96.0","Celsius","-","-","-","-","","-",""
"C(CCCCCCC)SC(=[NH+]C)NC.[Br-]","-","-","AUTO_1648","C1182_A0004","A132065","-","-","-","54.0","Celsius","-","-","-","-","54.0","Celsius","-","-","-","-","","-",""
"CCCCCCCC[P+](CCCCCCCC)(CCCCCCCC)C.[Cl-]","-","-","AUTO_1649","C0741_A0033","A132065","-","-","-","89.0","Celsius","-","-","-","-","89.0","Celsius","-","-","-","-","","-",""
"CCCCCCCC[P+](CCCCCCCC)(CCCCCCCC)CC.[Cl-]","-","-","AUTO_1650","C0708_A0033","A132065","-","-","-","66.0","Celsius","-","-","-","-","66.0","Celsius","-","-","-","-","","-",""
"CCCCCCCC[P+](CCCCCCCC)(CCCCCCCC)CCC.[Cl-]","-","-","AUTO_1651","C0786_A0033","A132065","-","-","-","29.0","Celsius","-","-","-","-","29.0","Celsius","-","-","-","-","","-",""
"CCCCCCCCCCCC[P+](CCCCCCCC)(CCCCCCCC)CCCCCCCC.[Cl-]","-","-","AUTO_1652","C1035_A0033","A132065","-","-","-","-30.0","Celsius","-","-","-","-","-30.0","Celsius","-","-","-","-","","-",""
"CCCCCCCCCCCCCC[P+](CCCCCCCC)(CCCCCCCC)CCCCCCCC.[Cl-]","-","-","AUTO_1653","C0559_A0033","A132065","-","-","-","-20.0","Celsius","-","-","-","-","-20.0","Celsius","-","-","-","-","","-",""
"CC1=[N+](C)C=CN1CC[Si](C)(C)C.C(F)(F)(F)S(=O)(=O)[N-]S(=O)(=O)C(F)(F)F","-","-","AUTO_1654","C1183_A0048","A132065","-","-","-","42.0","Celsius","-","-","-","-","42.0","Celsius","-","-","-","-","","-",""
"CCCC[P+](C)(CCCC)CCCC.[Cl-]","-","-","AUTO_1655","C1196_A0033","A132065","-","-","-","20.0","Celsius","-","-","-","-","20.0","Celsius","-","-","-","-","","-",""
"C(CCC)[P+](CC)(CCCC)CCCC.[Cl-]","-","-","AUTO_1656","C1197_A0033","A132065","-","-","-","70.0","Celsius","-","-","-","-","70.0","Celsius","-","-","-","-","","-",""
"CCCC[P+](CCC)(CCCC)CCCC.[Cl-]","-","-","AUTO_1657","C1198_A0033","A132065","-","-","-","78.0","Celsius","-","-","-","-","78.0","Celsius","-","-","-","-","","-",""
"C(CCC)[P+](CCCC)(CCCC)CCCC.[Cl-]","-","-","AUTO_1658","C1199_A0033","A132065","-","-","-","71.0","Celsius","-","-","-","-","71.0","Celsius","-","-","-","-","","-",""
"CCCCC[P+](CCCC)(CCCC)CCCC.[Cl-]","-","-","AUTO_1659","C1200_A0033","A132065","-","-","-","48.0","Celsius","-","-","-","-","48.0","Celsius","-","-","-","-","","-",""
"CCCCCC[P+](CCCC)(CCCC)CCCC.[Cl-]","-","-","AUTO_1660","C0182_A0033","A132065","-","-","-","24.0","Celsius","-","-","-","-","24.0","Celsius","-","-","-","-","","-",""
"CCCCCCC[P+](CCCC)(CCCC)CCCC.[Cl-]","-","-","AUTO_1661","C1201_A0033","A132065","-","-","-","53.0","Celsius","-","-","-","-","53.0","Celsius","-","-","-","-","","-",""
"CCCCCCCC[P+](CCCC)(CCCC)CCCC.[Cl-]","-","-","AUTO_1662","C1202_A0033","A132065","-","-","-","19.0","Celsius","-","-","-","-","19.0","Celsius","-","-","-","-","","-",""
"C(CCCCCCCCCCC)[P+](CCCC)(CCCC)CCCC.[Cl-]","-","-","AUTO_1663","C1203_A0033","A132065","-","-","-","23.0","Celsius","-","-","-","-","23.0","Celsius","-","-","-","-","","-",""
"CCCCCCCCCCCCCC[P+](CCCC)(CCCC)CCCC.[Cl-]","-","-","AUTO_1664","C1204_A0033","A132065","-","-","-","39.0","Celsius","-","-","-","-","39.0","Celsius","-","-","-","-","","-",""
"CC[N+]=1C=CN(C1)C.F[B-](F)(F)F","-","-","AUTO_1665","C0460_A0020","A132065","-","-","-","15.0","Celsius","-","-","-","-","15.0","Celsius","-","-","-","-","","-",""
"CC[N+]=1C=CN(C1)C.[O-]P(F)(F)=O","-","-","AUTO_1666","C0460_A0097","A132065","-","-","-","7.0","Celsius","-","-","-","-","7.0","Celsius","-","-","-","-","","-",""
"CC[N+]=1C=CN(C1)C.FC(S(=O)(=O)[O-])(F)F","-","-","AUTO_1667","C0460_A0084","A132065","-","-","-","-10.0","Celsius","-","-","-","-","-10.0","Celsius","-","-","-","-","","-",""
"CC1=CC2=CC=CC=[N+]2C=C1C.[Br-]","-","-","AUTO_1668","C1184_A0004","A132065","-","-","-","237.0","Celsius","-","-","-","-","237.0","Celsius","-","-","-","-","","-",""