"SMILES","CASRN","EXTERNALID","N","NAME","ARTICLEID","PUBMEDID","PAGE","TABLE","Melting Point","UNIT {Melting Point}","Decomposition","UNIT {Decomposition}","Glass-transition temperature (Tg)","UNIT {Glass-transition temperature (Tg)}","Melting Point {measured, converted}","UNIT {Melting Point}","Decomposition {measured, converted}","UNIT {Decomposition}","Glass-transition temperature (Tg) {measured, converted}","UNIT {Glass-transition temperature (Tg)}","weight loss","UNIT {weight loss}","Solvent"
"CCCCCCC[N+]1(C)CCCCC1.ClC1=CC(=C(OCCCC(=O)[O-])C=C1)C","-","-","AUTO_2206","C1593_A0380","A132065","-","-","-","20.0","Celsius","-","-","-","-","20.0","Celsius","-","-","-","-","","-",""
"C(CCCCCCCCC)[N+]1(CCCCC1)C.ClC1=CC(=C(OCCCC(=O)[O-])C=C1)C","-","-","AUTO_2207","C2175_A0380","A132065","-","-","-","19.0","Celsius","-","-","-","-","19.0","Celsius","-","-","-","-","","-",""
"C[N+]1(CCCCC1)CCCCCCCCCCC.ClC1=CC(=C(OCCCC(=O)[O-])C=C1)C","-","-","AUTO_2208","C2176_A0380","A132065","-","-","-","-27.0","Celsius","-","-","-","-","-27.0","Celsius","-","-","-","-","","-",""
"C(CCCCCCCCCCC)[N+]1(CCCCC1)C.ClC1=CC(=C(OCCCC(=O)[O-])C=C1)C","-","-","AUTO_2209","C2177_A0380","A132065","-","-","-","37.0","Celsius","-","-","-","-","37.0","Celsius","-","-","-","-","","-",""
"C[N+]1(CCCCC1)CCCCCCCCCCCCCC.ClC1=CC(=C(OCCCC(=O)[O-])C=C1)C","-","-","AUTO_2210","C2178_A0380","A132065","-","-","-","60.0","Celsius","-","-","-","-","60.0","Celsius","-","-","-","-","","-",""
"C(CCCCCCCCCCCCCCC)[N+]1(CCCCC1)C.ClC1=CC(=C(OCCCC(=O)[O-])C=C1)C","-","-","AUTO_2211","C2179_A0380","A132065","-","-","-","46.0","Celsius","-","-","-","-","46.0","Celsius","-","-","-","-","","-",""
"C[N+]1(CCCCC1)CCCCCCCCCCCCCCCCCC.ClC1=CC(=C(OCCCC(=O)[O-])C=C1)C","-","-","AUTO_2212","C2180_A0380","A132065","-","-","-","46.0","Celsius","-","-","-","-","46.0","Celsius","-","-","-","-","","-",""
"F[P-](F)(F)(F)(F)F.CCC1(C=CC=CC1C2=C(F)C=C(F)C=C2)[N+]3=CC=CC=C3","-","-","AUTO_2","-","A132065","-","-","-","145.0","Celsius","-","-","-","-","145.0","Celsius","-","-","-","-","","-",""
"C[Si](C)(C)CCS([O-])(=O)=O.CCCCCCCCCCCCCCCC[P+](CCCC)(CCCC)CCCC","-","-","AUTO_3","-","A132065","-","-","-","5.0","Celsius","-","-","-","-","5.0","Celsius","-","-","-","-","","-",""
"[I-].CC[N+]1=C(C=CC=C1)C2=CC=CC=C2","-","-","AUTO_4","-","A132065","-","-","-","70.0","Celsius","-","-","-","-","70.0","Celsius","-","-","-","-","","-",""
"O[N+](=O)C1=C[N-]C=N1.C1CN=C2CCCCC[NH+]2C1","-","-","AUTO_5","-","A132065","-","-","-","50.0","Celsius","-","-","-","-","50.0","Celsius","-","-","-","-","","-",""
"C[Si](C)(C)CCS([O-])(=O)=O.CCCCCCCCCCCC[P+](CCCC)(CCCC)CCCC","-","-","AUTO_6","-","A132065","-","-","-","-6.0","Celsius","-","-","-","-","-6.0","Celsius","-","-","-","-","","-",""
"O[N+](=O)C1=NC=C[N-]1.C1CN=C2CCCCC[NH+]2C1","-","-","AUTO_9","-","A132065","-","-","-","100.0","Celsius","-","-","-","-","100.0","Celsius","-","-","-","-","","-",""
"F[P-](F)(F)(F)(F)F.CC1(C=CC=CC1C2=C(F)C=C(F)C=C2)[N+]3=CC=CC=C3","-","-","AUTO_10","-","A132065","-","-","-","225.0","Celsius","-","-","-","-","225.0","Celsius","-","-","-","-","","-",""
"CCN(CC)CC[N+]1=CN(C)C=C1.FC(F)(F)S(=O)(=O)[N-]S(=O)(=O)C(F)(F)F","-","-","AUTO_11","-","A132065","-","-","-","-84.0","Celsius","-","-","-","-","-84.0","Celsius","-","-","-","-","","-",""
"[I-].C[N+]1=C(C=CC=C1)C2=CC=CC=C2","-","-","AUTO_12","-","A132065","-","-","-","150.0","Celsius","-","-","-","-","150.0","Celsius","-","-","-","-","","-",""
"C[Si](C)(C)CCCS([O-])(=O)=O.CCCCCCCCCCCCCCCC[P+](CCCC)(CCCC)CCCC","-","-","AUTO_13","-","A132065","-","-","-","-5.0","Celsius","-","-","-","-","-5.0","Celsius","-","-","-","-","","-",""
"C[Si](C)(C)CCCS([O-])(=O)=O.CCCCCCCCCCCC[P+](CCCC)(CCCC)CCCC","-","-","AUTO_14","-","A132065","-","-","-","2.0","Celsius","-","-","-","-","2.0","Celsius","-","-","-","-","","-",""
"[I-].CCC1(C=CC=CC1C2=C(F)C=C(F)C=C2)[N+]3=CC=CC=C3","-","-","AUTO_15","-","A132065","-","-","-","130.0","Celsius","-","-","-","-","130.0","Celsius","-","-","-","-","","-",""
"F[P-](F)(F)(F)(F)F.C[N+]1=C(C=CC=C1)C2=CC=CC=C2","-","-","AUTO_17","-","A132065","-","-","-","170.0","Celsius","-","-","-","-","170.0","Celsius","-","-","-","-","","-",""
"F[P-](F)(F)(F)(F)F.CC[N+]1=C(C=CC=C1)C2=CC=CC=C2","-","-","AUTO_18","-","A132065","-","-","-","130.0","Celsius","-","-","-","-","130.0","Celsius","-","-","-","-","","-",""
"[I-].C[N+]1=C(C2=C(F)C=C(F)C=C2)C=CC=C1","-","-","AUTO_19","-","A132065","-","-","-","195.0","Celsius","-","-","-","-","195.0","Celsius","-","-","-","-","","-",""
"N#C[N-]C#N.CC[P+](CC)(CC)COC","-","-","AUTO_705","-","A135195","-","-","-","-11.0","Celsius","-","-","-","-","-11.0","Celsius","-","-","-","-","","-",""
"CCOCC[N+]1(C)CCCC1.F[B-](F)(F)C(F)(F)C(F)(F)F","-","-","AUTO_824","-","A135195","-","-","-","-6.0","Celsius","-","-","-","-","-6.0","Celsius","-","-","-","-","","-",""
"[O-]N(=O)=O.CCCCCCCCCCCCCC[P+](CCCCCC)(CCCCCC)CCCCCC","-","-","AUTO_1138","-","A135195","-","-","-","6.0","Celsius","-","-","-","-","6.0","Celsius","-","-","-","-","","-",""
"CC[N+](CC)(CC)CC.FC(F)(F)C(F)(F)S(=O)(=O)[N-]S(F)(=O)=O","-","-","AUTO_1152","-","A135195","-","-","-","6.0","Celsius","-","-","-","-","6.0","Celsius","-","-","-","-","","-",""
"CCCCC1=CC=C(C=C1)[N+]#N.FC(F)(F)S(=O)(=O)[N-]S(=O)(=O)C(F)(F)F","-","-","AUTO_1195","-","A135195","-","-","-","7.2","Celsius","-","-","-","-","7.2","Celsius","-","-","-","-","","-",""
"F[B-](F)(F)F.CC[N+](C)(C)CCOC","-","-","AUTO_1200","-","A135195","-","-","","7.8","Celsius","-","-","-","-","7.8","Celsius","-","-","-","-","","-",""
"CC[N+](CC)(CC)CC.FC(F)(F)S(=O)(=O)[N-]S(F)(=O)=O","-","-","AUTO_1234","-","A135195","-","-","-","8.5","Celsius","-","-","-","-","8.5","Celsius","-","-","-","-","","-",""
"CC[N+]1=C(CCC1)OC.FS(=O)(=O)[N-]S(F)(=O)=O","-","-","AUTO_1263","-","A135195","-","-","-","9.0","Celsius","-","-","-","-","9.0","Celsius","-","-","-","-","","-",""
"CC[N+](C)(C)COC.F[B-](F)(F)C(F)(F)C(F)(F)F","-","-","AUTO_1330","-","A135195","-","-","","11.0","Celsius","-","-","-","-","11.0","Celsius","-","-","-","-","","-",""
"FP(F)(F)(F)(F)F.CCCC[N+]1=CN(C)C=C1","-","-","AUTO_1387","-","A135195","-","-","-","12.64","Celsius","-","-","-","-","12.64","Celsius","-","-","-","-","","-",""
"CCCCCC[N+]1=CSC=C1.FC(F)(F)S(=O)(=O)[N-]S(=O)(=O)C(F)(F)F","-","-","AUTO_1491","-","A135195","-","-","-","16.0","Celsius","-","-","-","-","16.0","Celsius","-","-","-","-","","-",""
"CCC([O-])=O.CCCC[N+](CCCC)(CCCC)CCCC","-","-","AUTO_1516","-","A135195","-","-","-","17.0","Celsius","-","-","-","-","17.0","Celsius","-","-","-","-","","-",""
"FC(F)(F)S(=O)(=O)[N-]S(=O)(=O)C(F)(F)F.CCCCCCCCCCCC[N+]1=CNC=C1","-","-","AUTO_1544","-","A135195","-","-","-","17.74","Celsius","-","-","-","-","17.74","Celsius","-","-","-","-","","-",""
"F[B-](F)(F)F.CCCCCCCCCCCN1C=C[N+](C)=C1","-","-","AUTO_1681","-","A135195","-","-","","21.4","Celsius","-","-","-","-","21.4","Celsius","-","-","-","-","","-",""
"CCOS([O-])(=O)=O.CC[N+]1=CC=C(C=C1)C#N","-","-","AUTO_1779","-","A135195","-","-","-","25.0","Celsius","-","-","-","-","25.0","Celsius","-","-","-","-","","-",""
"CCCC[N+]1=CC=CC(=C1)C#N.FC(F)(F)S(=O)(=O)[N-]S(=O)(=O)C(F)(F)F","-","-","AUTO_1781","-","A135195","-","-","-","25.0","Celsius","-","-","-","-","25.0","Celsius","-","-","-","-","","-",""
"[C@H](N)(CCCNC(N)=N)C([O-])=O.CCCC[P+](CCCC)(CCCC)CCCC","-","-","AUTO_2003","-","A135195","-","-","-","30.7","Celsius","-","-","-","-","30.7","Celsius","-","-","-","-","","-",""
"[N-]1C=CC=N1.CCCCCCCCCCCCCC[N+](C)(C)CC","-","-","AUTO_2025","-","A135195","-","-","-","31.0","Celsius","-","-","-","-","31.0","Celsius","-","-","-","-","","-",""
"CC(C)N(CC[N+]1=CN(C)C=C1)C(C)C.FC(F)(F)S(=O)(=O)[N-]S(=O)(=O)C(F)(F)F","-","-","AUTO_2089","-","A135195","-","-","-","33.0","Celsius","-","-","-","-","33.0","Celsius","-","-","-","-","","-",""
"CC[N+]1=C(C)NC=C1.[O-]S(=O)(=O)OC(C(F)(F)F)C(F)(F)F","-","-","AUTO_2101","-","A135195","-","-","-","33.0","Celsius","-","-","-","-","33.0","Celsius","-","-","-","-","","-",""
"FS(=O)(=O)[N-]S(F)(=O)=O.CCCCCCCC[N+]1=CC2=CC=CC=C2C=C1","-","-","AUTO_2122","-","A135195","-","-","-","33.84","Celsius","-","-","-","-","33.84","Celsius","-","-","-","-","","-",""
"CC(C)C([O-])=O.C[N+](C)(C)CCO","-","-","AUTO_2165","-","A135195","-","-","-","35.0","Celsius","-","-","-","-","35.0","Celsius","-","-","-","-","","-",""
"[Br-].CCCCCCCCCCCC[N+]1=C(C)N(CCCC)C=C1","-","-","AUTO_2198","-","A135195","-","-","-","35.3","Celsius","-","-","-","-","35.3","Celsius","-","-","-","-","","-",""
"C[N+](C)(C)C.[O-]S(=O)(=O)CCCN1CCOCC1","-","-","AUTO_2253","-","A135195","-","-","-","36.4","Celsius","-","-","-","-","36.4","Celsius","-","-","-","-","","-",""
"[N-]1C=NN=C1.CCCCCCCCCCCCCCCC[N+](C)(C)C","-","-","AUTO_2259","-","A135195","-","-","-","36.6","Celsius","-","-","-","-","36.6","Celsius","-","-","-","-","","-",""
"[O-]C(=O)C1=CC=CC=N1.CCCC[N+](CCCC)(CCCC)CCCC","-","-","AUTO_2291","-","A135195","-","-","-","37.5","Celsius","-","-","-","-","37.5","Celsius","-","-","-","-","","-",""
"F[B-](F)(F)F.CCCCCCCCCCCCCCN1C=C[N+](C)=C1","-","-","AUTO_2310","-","A135195","-","-","","38.0","Celsius","-","-","-","-","38.0","Celsius","-","-","-","-","","-",""
"[O-]N(=O)=O.CC[NH+]1C=NC(=C1)N(=O)=O","-","-","AUTO_2452","-","A135195","-","-","","40.0","Celsius","-","-","-","-","40.0","Celsius","-","-","-","-","","-",""
"[O-]S(=O)(=O)C(F)(F)F.CC[N+](CC)=C(C)OC","-","-","AUTO_2507","-","A135195","-","-","-","41.0","Celsius","-","-","-","-","41.0","Celsius","-","-","-","-","","-",""
"CCC[N+](C)(C)C.FS(=O)(=O)[N-]S(F)(=O)=O","-","-","AUTO_2543","-","A135195","-","-","-","42.0","Celsius","-","-","-","-","42.0","Celsius","-","-","-","-","","-",""
"CCC[N+]1=CN(C=C1)C2=CC=C(C)C=C2.FC(F)(F)S(=O)(=O)[N-]S(=O)(=O)C(F)(F)F","-","-","AUTO_2547","-","A135195","-","-","-","42.0","Celsius","-","-","-","-","42.0","Celsius","-","-","-","-","","-",""
"F[P-](F)(F)(F)(F)F.CCCC[N+]1=CC=C(C)C=C1","-","-","AUTO_2578","-","A135195","-","-","-","43.0","Celsius","-","-","-","-","43.0","Celsius","-","-","-","-","","-",""
"[O-]S(=O)(=O)C(F)(F)F.CCCCCCCCCCN1C=[N+](CCF)C=N1","-","-","AUTO_2726","-","A135195","-","-","-","46.0","Celsius","-","-","-","-","46.0","Celsius","-","-","-","-","","-",""
"[Br-].C[N+]1(CCCCCC#N)CCCC1","-","-","AUTO_2730","-","A135195","-","-","-","46.0","Celsius","-","-","-","-","46.0","Celsius","-","-","-","-","","-",""
"C[N+](C)(C)CCO.[O-]C(=O)C1=CC=CC=C1","-","-","AUTO_2769","-","A135195","-","-","-","47.0","Celsius","-","-","-","-","47.0","Celsius","-","-","-","-","","-",""
"F[B-](F)(F)F.CCC[N+](CCC)(CCC)CCOCC","-","-","AUTO_2968","-","A135195","-","-","","50.3","Celsius","-","-","-","-","50.3","Celsius","-","-","-","-","","-",""
"CC[N+](C)(C)CCCC(F)(F)F.FC(F)(F)S(=O)(=O)[N-]S(=O)(=O)C(F)(F)F","-","-","AUTO_3004","-","A135195","-","-","-","51.0","Celsius","-","-","-","-","51.0","Celsius","-","-","-","-","","-",""
"[Cl-].C[N+]1=CN(CC=C)C=C1","-","-","AUTO_3039","-","A135195","-","-","-","52.0","Celsius","-","-","-","-","52.0","Celsius","-","-","-","-","","-",""
"CC([O-])=O.CC[NH+](CC)CCOC(=O)C1=CC=C(N)C=C1","-","-","AUTO_3082","-","A135195","-","-","","52.0","Celsius","-","-","-","-","52.0","Celsius","-","-","-","-","","-",""
"[I-].CCCCCCCCCCCCCCCC[N+]1=CN(C=C1)C2=C(C)C=CC=C2","-","-","AUTO_3087","-","A135195","-","-","-","52.0","Celsius","-","-","-","-","52.0","Celsius","-","-","-","-","","-",""
"[Br-].CCCCCCCC[N+]1=CN(CC2=CC(CN3C=C[N+](CCCCCCCC)=C3)=CC(CN4C=CN=C4)=C2)C=C1","-","-","AUTO_3130","-","A135195","-","-","-","53.1","Celsius","-","-","-","-","53.1","Celsius","-","-","-","-","","-",""
"[N-]1C=CN=C1.CCCCCCCCCCCCCC[N+](C)(C)CC","-","-","AUTO_3176","-","A135195","-","-","-","54.0","Celsius","-","-","-","-","54.0","Celsius","-","-","-","-","","-",""
"[O-]S(=O)(=O)C(F)(F)F.CCCC[N+]1(C)CCCCCC1","-","-","AUTO_3211","-","A135195","-","-","-","55.0","Celsius","-","-","-","-","55.0","Celsius","-","-","-","-","","-",""
"FC(F)(F)S(=O)(=O)[N-]S(=O)(=O)C(F)(F)F.CCCCCC[N+]1=CC=C(C=C1)C2=CC=NC=C2","-","-","AUTO_3293","-","A135195","-","-","-","56.0","Celsius","-","-","-","-","56.0","Celsius","-","-","-","-","","-",""
"C[N+]1(C)CCCC1.O=N(=O)C1=C[N-]N=N1","-","-","AUTO_3347","-","A135195","-","-","-","57.0","Celsius","-","-","-","-","57.0","Celsius","-","-","-","-","","-",""
"CC1=CC=C(C=C1)S([O-])(=O)=O.CCCCCCCC[N+](CCCCCCCC)(CCCCCCCC)CCCCCCCC","-","-","AUTO_3368","-","A135195","-","-","-","57.5","Celsius","-","-","-","-","57.5","Celsius","-","-","-","-","","-",""
"CCN1C=[N+](C)C(C)=C1C.FC(F)(F)S(=O)(=O)[N-]S(=O)(=O)C(F)(F)F","-","-","AUTO_3415","-","A135195","-","-","-","58.0","Celsius","-","-","-","-","58.0","Celsius","-","-","-","-","","-",""
"F[B-](F)(F)F.CC(C)[N+]1=CN(C)C(=C1)P(=O)(C2=CC=CC=C2)C3=CC=CC=C3","-","-","AUTO_3457","-","A135195","-","-","","59.0","Celsius","-","-","-","-","59.0","Celsius","-","-","-","-","","-",""
"[I-].CCCC[N+]1(CCCC#N)CCCC1","-","-","AUTO_3509","-","A135195","-","-","-","60.0","Celsius","-","-","-","-","60.0","Celsius","-","-","-","-","","-",""
"[O-]S(=O)(=O)C(F)(F)F.C(C1=CC=CC=C1)[N+]2=CC=CC=C2","-","-","AUTO_3546","-","A135195","-","-","-","61.0","Celsius","-","-","-","-","61.0","Celsius","-","-","-","-","","-",""
"N#C[N-]C#N.CCCCCCCCCCCCCCOC(=O)C[N+](C)(C)C","-","-","AUTO_3565","-","A135195","-","-","-","61.0","Celsius","-","-","-","-","61.0","Celsius","-","-","-","-","","-",""
"CC(=O)OC1=CC=CC=C1C([O-])=O.CCCCCCCCCCCCCCCC[N+]1=CC=CC=C1","-","-","AUTO_3575","-","A135195","-","-","-","61.31","Celsius","-","-","-","-","61.31","Celsius","-","-","-","-","","-",""
"[Cl-].CCCCCCCCCCCCN1C=C[N+](CC2=CC=CC=C2)=C1C","-","-","AUTO_3590","-","A135195","-","-","-","62.0","Celsius","-","-","-","-","62.0","Celsius","-","-","-","-","","-",""
"N#C[N-]C#N.CCCC[P+](CCCC)(CCCC)CCCC","-","-","AUTO_3604","-","A135195","-","-","-","62.0","Celsius","-","-","-","-","62.0","Celsius","-","-","-","-","","-",""
"[Br-].CCC[N+]1=CN(C=C1)C2=C(C)C=C(C)C=C2","-","-","AUTO_3619","-","A135195","-","-","-","62.0","Celsius","-","-","-","-","62.0","Celsius","-","-","-","-","","-",""
"[Br-].CC[N+](CCO)(CCO)CCO","-","-","AUTO_3651","-","A135195","-","-","-","62.8","Celsius","-","-","-","-","62.8","Celsius","-","-","-","-","","-",""
"FP(F)(F)(F)(F)F.CCCCC[N+]1=C(CC)OC[C@@H]1C(C)C","-","-","AUTO_3675","-","A135195","-","-","-","63.0","Celsius","-","-","-","-","63.0","Celsius","-","-","-","-","","-",""
"[O-]N(=O)=O.CN1C=C[N+](CC#C)=C1","-","-","AUTO_3678","-","A135195","-","-","-","63.0","Celsius","-","-","-","-","63.0","Celsius","-","-","-","-","","-",""
"N#C[N-]C#N.CCCCCCCCCCCCCCCCOC(=O)C[N+](C)(C)C","-","-","AUTO_3688","-","A135195","-","-","-","63.0","Celsius","-","-","-","-","63.0","Celsius","-","-","-","-","","-",""
"FP(F)(F)(F)(F)F.CCCCCCCCCCCCCC[N+]1=CN(C)C=C1","-","-","AUTO_3792","-","A135195","-","-","-","65.1","Celsius","-","-","-","-","65.1","Celsius","-","-","-","-","","-",""
"FS(=O)(=O)[N-]S(F)(=O)=O.CCCCCCCCCCCCCCCCCCN1C=C[N+](C)=C1","-","-","AUTO_3800","-","A135195","-","-","-","65.7","Celsius","-","-","-","-","65.7","Celsius","-","-","-","-","","-",""
"FC(F)(F)S(=O)(=O)[N-]S(=O)(=O)C(F)(F)F.CCCCCCCCCCCCCCCCCCCCCCN1C=C[N+](C)=C1","-","-","AUTO_3804","-","A135195","-","-","-","65.9","Celsius","-","-","-","-","65.9","Celsius","-","-","-","-","","-",""
"CCCCC1=CC=C(C=C1)[B-](F)(F)F.CCCC[N+](CCCC)(CCCC)CCCC","-","-","AUTO_3840","-","A135195","-","-","-","66.0","Celsius","-","-","-","-","66.0","Celsius","-","-","-","-","","-",""
"N#C[N-]C#N.C[N+]1=CN(CC#N)C=C1","-","-","AUTO_3880","-","A135195","-","-","-","67.0","Celsius","-","-","-","-","67.0","Celsius","-","-","-","-","","-",""
"[Cl-].OC(COC1CCCCC1)C[N+]2=CC=CC=C2","-","-","AUTO_3918","-","A135195","-","-","-","67.93","Celsius","-","-","-","-","67.93","Celsius","-","-","-","-","","-",""
"COC1=C(/C=C/C([O-])=O)C=CC=C1.CCCCCCCCCCCC[N+]1=CN(C)C=C1","-","-","AUTO_3938","-","A135195","-","-","-","68.0","Celsius","-","-","-","-","68.0","Celsius","-","-","-","-","","-",""
"[Cl-].CC(C)(C)OC(=O)NCCN1C=C[N+](=C1)C(C2=CC=CC=C2)(C3=CC=CC=C3)C4=CC=CC=C4","-","-","AUTO_3953","-","A135195","-","-","-","68.0","Celsius","-","-","-","-","68.0","Celsius","-","-","-","-","","-",""
"FC(F)(F)S(=O)(=O)[N-]S(=O)(=O)C(F)(F)F.CCCCN1C=[N+](CCC(F)(F)C(F)(F)C(F)(F)C(F)(F)F)C=N1","-","-","AUTO_3998","-","A135195","-","-","-","69.0","Celsius","-","-","-","-","69.0","Celsius","-","-","-","-","","-",""
"FC(F)(F)S(=O)(=O)[N-]S(=O)(=O)C(F)(F)F.CCCCCCCCCCCCCCCCCC[N+]1(C)CCCC1","-","-","AUTO_4183","-","A135195","-","-","-","72.0","Celsius","-","-","-","-","72.0","Celsius","-","-","-","-","","-",""
"OP(O)([O-])=O.CCCC[N+]1=CN(C)C=C1","-","-","AUTO_4220","-","A135195","-","-","-","73.0","Celsius","-","-","-","-","73.0","Celsius","-","-","-","-","","-",""
"[Br-].CCCCCCCCCCCCCCCCCC[N+]1=CC=CC=C1","-","-","AUTO_4280","-","A135195","-","-","-","74.0","Celsius","-","-","-","-","74.0","Celsius","-","-","-","-","","-",""
"[Br-].CCCCCC[N+]1(C)CCCC1","-","-","AUTO_4282","-","A135195","-","-","-","74.0","Celsius","-","-","-","-","74.0","Celsius","-","-","-","-","","-",""
"[I-].CCCC[N+]1=CN(C=C1)C2=CC=C(CC)C=C2","-","-","AUTO_4398","-","A135195","-","-","-","75.6","Celsius","-","-","-","-","75.6","Celsius","-","-","-","-","","-",""
"COC1=CC=CC(=C1)[B-](F)(F)F.CCCC[N+](CCCC)(CCCC)CCCC","-","-","AUTO_4402","-","A135195","-","-","-","75.7","Celsius","-","-","-","-","75.7","Celsius","-","-","-","-","","-",""
"CS([O-])(=O)=O.CN1C(C)=CC(C)=[N+]1C2=CC=C(Br)C=C2","-","-","AUTO_4444","-","A135195","-","-","-","76.3","Celsius","-","-","-","-","76.3","Celsius","-","-","-","-","","-",""
"CCC[N+](C)(C)C.F[B-](F)(F)C1=CC=CC=C1","-","-","AUTO_4458","-","A135195","-","-","-","76.84","Celsius","-","-","-","-","76.84","Celsius","-","-","-","-","","-",""
"[Br-].CCCCCCCCCCCCCCOC1=CC=[N+](CCCCCCCCCCCCCC)C=C1","-","-","AUTO_4460","-","A135195","-","-","-","76.9","Celsius","-","-","-","-","76.9","Celsius","-","-","-","-","","-",""
"[Br-].CCCCCCCCCCCCCC[N+]1=CC=C(C)C=C1","-","-","AUTO_4475","-","A135195","-","-","-","77.0","Celsius","-","-","-","-","77.0","Celsius","-","-","-","-","","-",""
"CN1C=C[N+](CCON(=O)=O)=C1.[O-]C1=C(C=C(C=C1N(=O)=O)N(=O)=O)N(=O)=O","-","-","AUTO_4739","-","A135195","-","-","-","81.0","Celsius","-","-","-","-","81.0","Celsius","-","-","-","-","","-",""
"[Br-].CCCC[N+](CCCC)(CCCC)CC(=O)OCC","-","-","AUTO_4802","-","A135195","-","-","-","83.0","Celsius","-","-","-","-","83.0","Celsius","-","-","-","-","","-",""
"[O-]I(=O)(=O)=O.CO[N+]1(C)CCOCC1","-","-","AUTO_4841","-","A135195","-","-","-","83.5","Celsius","-","-","-","-","83.5","Celsius","-","-","-","-","","-",""
"[Br-].CC[N+](C)(CC)CCOC","-","-","AUTO_4908","-","A135195","-","-","-","85.0","Celsius","-","-","-","-","85.0","Celsius","-","-","-","-","","-",""
"[Br-].CC[N+]1=CN(C=C)N=C1","-","-","AUTO_4915","-","A135195","-","-","-","85.0","Celsius","-","-","-","-","85.0","Celsius","-","-","-","-","","-",""
"[I-].CCN1C=[N+](CC)C=N1","-","-","AUTO_4922","-","A135195","-","-","-","85.0","Celsius","-","-","-","-","85.0","Celsius","-","-","-","-","","-",""
"CS([O-])(=O)=O.CCCCCCCCCCCCCCCCN1C=C[N+](CCCS(O)(=O)=O)=C1","-","-","AUTO_4938","-","A135195","-","-","-","85.0","Celsius","-","-","-","-","85.0","Celsius","-","-","-","-","","-",""
"[Br-].CCCCCCCCCC[N+]1=CC=CC2=CC=CC=C12","-","-","AUTO_5015","-","A135195","-","-","-","86.6","Celsius","-","-","-","-","86.6","Celsius","-","-","-","-","","-",""
"FP(F)(F)(F)(F)F.CCCCCCCC[N+](CC)(CC)CC","-","-","AUTO_5119","-","A135195","-","-","-","88.3","Celsius","-","-","-","-","88.3","Celsius","-","-","-","-","","-",""
"[I-].C[N+](C)(C)CCN=N#N","-","-","AUTO_5136","-","A135195","-","-","-","89.0","Celsius","-","-","-","-","89.0","Celsius","-","-","-","-","","-",""
"[Cl-].C[N+]1(C)CCOCC1","-","-","AUTO_5181","-","A135195","-","-","-","90.0","Celsius","-","-","-","-","90.0","Celsius","-","-","-","-","","-",""
"[I-].CCCCCCN1C=C[N+](CCC(F)(F)C(F)(F)C(F)(F)C(F)(F)C(F)(F)C(F)(F)C(F)(F)C(F)(F)F)=C1","-","-","AUTO_5191","-","A135195","-","-","-","90.0","Celsius","-","-","-","-","90.0","Celsius","-","-","-","-","","-",""
"[I-].CCCCCCCCCCCC[N+]1=CSC2=C1C=CC=C2","-","-","AUTO_5219","-","A135195","-","-","-","90.5","Celsius","-","-","-","-","90.5","Celsius","-","-","-","-","","-",""