"SMILES","CASRN","EXTERNALID","N","NAME","ARTICLEID","PUBMEDID","PAGE","TABLE","Melting Point","UNIT {Melting Point}","Decomposition","UNIT {Decomposition}","Glass-transition temperature (Tg)","UNIT {Glass-transition temperature (Tg)}","Melting Point {measured, converted}","UNIT {Melting Point}","Decomposition {measured, converted}","UNIT {Decomposition}","Glass-transition temperature (Tg) {measured, converted}","UNIT {Glass-transition temperature (Tg)}","weight loss","UNIT {weight loss}","Solvent"
"[O-]C(=O)C(F)(F)F.CCCCCCSC[N+]1=CN(COCCCC)C=C1","-","-","AUTO_293","-","A132545","-","-","-","-","-","155.0","Celsius","-","-","-","-","155.0","Celsius","-","-","","-",""
"[I-].CCCCCCCC1=NOC(=N1)C2=CC=[N+](C)C=C2","-","-","AUTO_294","-","A132545","-","-","-","-","-","155.0","Celsius","-","-","-","-","155.0","Celsius","-","-","","-",""
"[O-]N(=O)=O.C[N+]1=CN(C=C)C=C1","-","-","AUTO_295","-","A132545","-","-","-","-","-","155.0","Celsius","-","-","-","-","155.0","Celsius","-","-","","-",""
"N#C[N-]C#N.C=CN1C=C[N+](CC#N)=C1","-","-","AUTO_296","-","A132545","-","-","-","-","-","155.0","Celsius","-","-","-","-","155.0","Celsius","-","-","","-",""
"[O-]S(=O)(=O)NC1CCCCC1.CCCCCCCCCCCOC[N+]1=CC=CC=C1","-","-","AUTO_297","-","A132545","-","-","-","-","-","155.0","Celsius","-","-","-","-","155.0","Celsius","-","-","","-",""
"[Cl-].CN1C=C[N+](CC2=NN=NN2)=C1","-","-","AUTO_298","-","A139547","20582354","-","-","-","-","155.5","Celsius","-","-","-","-","155.5","Celsius","-","-","","-",""
"COS([O-])(=O)=O.CCCCCCCCCCCCC[N+](C)(CCOCCO)COCOCCO","-","-","AUTO_299","-","A132545","-","-","-","-","-","155.85","Celsius","-","-","-","-","155.85","Celsius","-","-","","-",""
"COCC([O-])=O.OCC[NH+](CCO)CCO","-","-","AUTO_302","-","A132545","-","-","","-","-","156.0","Celsius","-","-","-","-","156.0","Celsius","-","-","","-",""
"CCCCCCCCCC[NH3+].COCCOCCOCCOCC([O-])=O","-","-","AUTO_303","-","A139582","27315131","-","","-","-","156.0","Celsius","-","-","-","-","156.0","Celsius","-","-","","-",""
"COC1=C(C([O-])=O)C(Cl)=CC=C1Cl.CCCC[N+](CCCC)(CCCC)CCCC","-","-","AUTO_304","-","A132545","-","-","-","-","-","156.0","Celsius","-","-","-","-","156.0","Celsius","-","-","","-",""
"O=C1CCC[N-]1.CCCCCCCC[N+](C)(CCO)CCO","-","-","AUTO_305","-","A132545","-","-","-","-","-","156.0","Celsius","-","-","-","-","156.0","Celsius","-","-","","-",""
"OC(=O)C([O-])=O.CC(O)C[NH+](CC(C)O)CC(C)O","-","-","AUTO_306","-","A132545","-","-","","-","-","156.0","Celsius","-","-","-","-","156.0","Celsius","-","-","","-",""
"[O-]C=O.OCC[NH2+]CCO","-","-","AUTO_307","-","A132545","-","-","","-","-","157.0","Celsius","-","-","-","-","157.0","Celsius","-","-","","-",""
"[I-].CCC[N+]1=CC=NC=C1","-","-","AUTO_308","-","A132545","-","-","-","-","-","157.0","Celsius","-","-","-","-","157.0","Celsius","-","-","","-",""
"[O-]Cl(=O)(=O)=O.FCC[N+]1=CC=NC=C1","-","-","AUTO_309","-","A139511","15762697","-","-","-","-","157.0","Celsius","-","-","-","-","157.0","Celsius","-","-","","-",""
"[I-].CCCCCCCCCCCC1=NOC(=N1)C2=CC=[N+](C)C=C2","-","-","AUTO_310","-","A132545","-","-","-","-","-","157.0","Celsius","-","-","-","-","157.0","Celsius","-","-","","-",""
"[Br-].CCCCCCCCOC(=O)C[N+]1=CC=CC=C1","-","-","AUTO_312","-","A132545","-","-","-","-","-","158.0","Celsius","-","-","-","-","158.0","Celsius","-","-","","-",""
"OCC[NH2+]CCO.CCCCCCCCC=CCCCCCCCC([O-])=O","-","-","AUTO_313","-","A99534","23360222","-","","-","-","158.0","Celsius","-","-","-","-","158.0","Celsius","-","-","","-",""
"[O-]N(=O)=O.NN1C=N[N+](CC#N)=C1","-","-","AUTO_314","-","A99534","23360222","-","-","-","-","158.0","Celsius","-","-","-","-","158.0","Celsius","-","-","","-",""
"OC([O-])=O.C[N+]1(C)CCCC1","-","-","AUTO_315","-","A132545","-","-","-","-","-","158.0","Celsius","-","-","-","-","158.0","Celsius","-","-","","-",""
"[Br-].CCCCCCOC(=O)C[N+]1=CC=CC=C1","-","-","AUTO_316","-","A132545","-","-","-","-","-","158.0","Celsius","-","-","-","-","158.0","Celsius","-","-","","-",""
"COP([O-])(=O)OC.COCCOCCOCC[N+]1(C)CCCCC1","-","-","AUTO_318","-","A132545","-","-","-","-","-","158.0","Celsius","-","-","-","-","158.0","Celsius","-","-","","-",""
"[O-]C(=O)C(F)(F)F.CC[N+](C)(C)CC=C","-","-","AUTO_319","-","A132545","-","-","-","-","-","158.0","Celsius","-","-","-","-","158.0","Celsius","-","-","","-",""
"[O-]C(=O)C=C.OCC[NH2+]CCO","-","-","AUTO_320","-","A132545","-","-","","-","-","158.0","Celsius","-","-","-","-","158.0","Celsius","-","-","","-",""
"OCC[NH2+]CCO.CCCCCC=CCC=CCCCCCCCC([O-])=O","-","-","AUTO_321","-","A132545","-","-","","-","-","158.0","Celsius","-","-","-","-","158.0","Celsius","-","-","","-",""
"[NH4+].O=N(=O)[N-]N(=O)=O","-","-","AUTO_322","-","A132545","-","-","","-","-","159.0","Celsius","-","-","-","-","159.0","Celsius","-","-","","-",""
"[O-]C(=O)C(F)(F)F.CCCCCCCCSC[N+]1=CN(COCCCC)C=C1","-","-","AUTO_323","-","A132545","-","-","-","-","-","159.0","Celsius","-","-","-","-","159.0","Celsius","-","-","","-",""
"CC[N+]1=C(CCC1)OC.FS(=O)(=O)[N-]S(F)(=O)=O","-","-","AUTO_327","-","A132545","-","-","-","-","-","159.0","Celsius","-","-","-","-","159.0","Celsius","-","-","","-",""
"[N-]1C=NC=N1.CCCCCCCCCCCCCCCC[N+](C)(C)CC","-","-","AUTO_328","-","A139583","27628023","-","-","-","-","159.0","Celsius","-","-","-","-","159.0","Celsius","-","-","","-",""
"[Br-].CCCCCCCCCCCCCCCC[N+](C)(C)CCO","-","-","AUTO_331","-","A99534","23360222","-","-","-","-","160.0","Celsius","-","-","-","-","160.0","Celsius","-","-","","-",""
"[Br-].CCCCCCCCCCCCOC(=O)C[N+]1=CC=CC=C1","-","-","AUTO_333","-","A139546","20499940","-","-","-","-","160.0","Celsius","-","-","-","-","160.0","Celsius","-","-","","-",""
"[O-]S(=O)(=O)C(F)(F)F.C[N+]1=NN(CC2=CC=CC=C2)C=C1","-","-","AUTO_334","-","A132545","-","-","-","-","-","160.0","Celsius","-","-","-","-","160.0","Celsius","-","-","","-",""
"[Cl-].C[NH+]1CCCN=C1C2=CC=CC=C2","-","-","AUTO_335","-","A132545","-","-","","-","-","160.0","Celsius","-","-","-","-","160.0","Celsius","-","-","","-",""
"[O-]S(=O)(=O)NC1CCCCC1.CCCCCCCCCCOC[N+]1=CC=CC=C1","-","-","AUTO_336","-","A139533","19007229","-","-","-","-","160.0","Celsius","-","-","-","-","160.0","Celsius","-","-","","-",""
"O=N(=O)[N-]N(=O)=O.NN1C=N[N+](CCCS(F)(F)(F)(F)F)=C1","-","-","AUTO_338","-","A132545","-","-","-","-","-","160.9","Celsius","-","-","-","-","160.9","Celsius","-","-","","-",""
"[O-]N(=O)=O.C=CN1C=C[N+](CC#N)=C1","-","-","AUTO_340","-","A132545","-","-","-","-","-","161.0","Celsius","-","-","-","-","161.0","Celsius","-","-","","-",""
"CC[NH+](CC)CC.[O-]C(=O)C1=CC=CC=C1N=NC2=CC=C(O)C=C2","-","-","AUTO_341","-","A139592","32006830","-","","-","-","161.0","Celsius","-","-","-","-","161.0","Celsius","-","-","","-",""
"F[B-](F)(F)F.[C@@H]12C[C@@H]([C@H](C)[C@H](C1)OC[N+]3=CC=CC=C3)C2(C)C","-","-","AUTO_342","-","A132545","-","-","","-","-","161.0","Celsius","-","-","-","-","161.0","Celsius","-","-","","-",""
"[O-]C(=O)C1=CC=CC=C1O.CC(O)C[NH+](CC(C)O)CC(C)O","-","-","AUTO_343","-","A132545","-","-","","-","-","161.0","Celsius","-","-","-","-","161.0","Celsius","-","-","","-",""
"[C@@H](C)(N)C([O-])=O.CCCC[N+](CCCC)(CCCC)CCCC","-","-","AUTO_344","-","A99534","23360222","-","-","-","-","162.0","Celsius","-","-","-","-","162.0","Celsius","-","-","","-",""
"[Br-].CCCCCCCCCCCCCCOC(=O)C[N+]1=CC=CC=C1","-","-","AUTO_345","-","A99534","23360222","-","-","-","-","162.0","Celsius","-","-","-","-","162.0","Celsius","-","-","","-",""
"[Br-].CCCCCCCCCCOC(=O)C[N+]1=CC=CC=C1","-","-","AUTO_346","-","A132545","-","-","-","-","-","162.0","Celsius","-","-","-","-","162.0","Celsius","-","-","","-",""
"OCC[NH2+]CCO.[O-]C(=O)CC(O)(CC(O)=O)C(O)=O","-","-","AUTO_347","-","A139582","27315131","-","","-","-","162.0","Celsius","-","-","-","-","162.0","Celsius","-","-","","-",""
"CCC[N+]1=C(N(C)CC1)C2=CC=CC=C2.C1=CC=C(C=C1)[B-](C2=CC=CC=C2)(C3=CC=CC=C3)C4=CC=CC=C4","-","-","AUTO_349","-","A139518","16718320","-","","-","-","162.0","Celsius","-","-","-","-","162.0","Celsius","-","-","","-",""
"CC[N+](CC)(CC)CC.OCCN(CCO)CC([O-])=O","-","-","AUTO_352","-","A139533","19007229","-","-","-","-","162.0","Celsius","-","-","-","-","162.0","Celsius","-","-","","-",""
"O=C1CCC[N-]1.CCCCCCCCCCCCCCCCCC[N+](C)(CCO)CCO","-","-","AUTO_353","-","A132545","-","-","-","-","-","162.0","Celsius","-","-","-","-","162.0","Celsius","-","-","","-",""
"OCC[NH2+]CCO.[O-]C(=O)C(F)(F)F","-","-","AUTO_356","-","A132545","-","-","","-","-","163.0","Celsius","-","-","-","-","163.0","Celsius","-","-","","-",""
"[N-]=C=S.C(N1C=C[N+](CC2=CC=CC=C2)=C1)C3=CC=CC=C3","-","-","AUTO_357","-","A139525","17665379","-","-","-","-","163.0","Celsius","-","-","-","-","163.0","Celsius","-","-","","-",""
"OCCN(CCO)CC([O-])=O.CCCC[N+](CCCC)(CCCC)CCCC","-","-","AUTO_359","-","A132545","-","-","-","-","-","163.0","Celsius","-","-","-","-","163.0","Celsius","-","-","","-",""
"[NH3+]CCO.CCCCCC=CCC=CCCCCCCCC([O-])=O","-","-","AUTO_360","-","A132545","-","-","","-","-","163.0","Celsius","-","-","-","-","163.0","Celsius","-","-","","-",""
"OP(O)([O-])=O.C[NH+]1C=CN=C1","-","-","AUTO_362","-","A132545","-","-","","-","-","164.0","Celsius","-","-","-","-","164.0","Celsius","-","-","","-",""
"OCC[NH2+]CCO.[O-]C(=O)C1=CC=CC=C1","-","-","AUTO_363","-","A132545","-","-","","-","-","164.0","Celsius","-","-","-","-","164.0","Celsius","-","-","","-",""
"[N-]1C=CC=N1.CCCCCCCC[N+](C)(C)CC","-","-","AUTO_365","-","A139520","17047790","-","-","-","-","164.0","Celsius","-","-","-","-","164.0","Celsius","-","-","","-",""
"C[N+](C)(C)C.O=N(=O)C1=C[N-]C=N1","-","-","AUTO_366","-","A132545","-","-","-","-","-","165.0","Celsius","-","-","-","-","165.0","Celsius","-","-","","-",""
"CCOC=[N+](C)C.[O-]S(=O)(=O)C(F)(F)F","-","-","AUTO_369","-","A139517","16586524","-","-","-","-","165.0","Celsius","-","-","-","-","165.0","Celsius","-","-","","-",""
"FC(F)(F)S(=O)(=O)[N-]S(=O)(=O)C(F)(F)F.CC(C)[C@@H]1CC[C@@H](C)C[C@H]1OC[N+]2=CC=CC(=C2)C(N)=O","-","-","AUTO_371","-","A132545","-","-","-","-","-","165.0","Celsius","-","-","-","-","165.0","Celsius","-","-","","-",""
"CC(C)C[C@H](N)C([O-])=O.C[N+]1(CCN)CCNCC1","-","-","AUTO_373","-","A132545","-","-","-","-","-","165.0","Celsius","-","-","-","-","165.0","Celsius","-","-","","-",""
"CCCCCCCCCCCC[NH3+].COCCOCCOCCOCC([O-])=O","-","-","AUTO_374","-","A132545","-","-","","-","-","165.0","Celsius","-","-","-","-","165.0","Celsius","-","-","","-",""
"CCOC(C)=[N+](C)C.[O-]S(=O)(=O)C(F)(F)F","-","-","AUTO_375","-","A132545","-","-","-","-","-","165.0","Celsius","-","-","-","-","165.0","Celsius","-","-","","-",""
"O=C1CCC[N-]1.CCCCCCCCCC[N+](C)(CCO)CCO","-","-","AUTO_377","-","A139582","27315131","-","-","-","-","165.0","Celsius","-","-","-","-","165.0","Celsius","-","-","","-",""
"O=C1CCC[N-]1.CCCCCCCCCCCCCCCC[N+](C)(CCO)CCO","-","-","AUTO_378","-","A139582","27315131","-","-","-","-","165.0","Celsius","-","-","-","-","165.0","Celsius","-","-","","-",""
"FS(=O)(=O)[N-]S(F)(=O)=O.CCC[N+]1=C(CCC1)OC","-","-","AUTO_379","-","A132545","-","-","-","-","-","165.0","Celsius","-","-","-","-","165.0","Celsius","-","-","","-",""
"[N-]1C=CC=N1.CCCCCCCCCCCCCCCC[N+](C)(C)CC","-","-","AUTO_380","-","A132545","-","-","-","-","-","165.0","Celsius","-","-","-","-","165.0","Celsius","-","-","","-",""
"CC[N+](C)(C)CC=C.[O-]S(=O)(=O)C(F)(F)F","-","-","AUTO_381","-","A139562","24173956","-","-","-","-","165.0","Celsius","-","-","-","-","165.0","Celsius","-","-","","-",""
"CC(=O)C([O-])=O.OCC[NH+](CCO)CCO","-","-","AUTO_382","-","A132545","-","-","","-","-","165.0","Celsius","-","-","-","-","165.0","Celsius","-","-","","-",""
"CC1=CC=[NH+]C=C1.[O-]C(=O)C1=CC=CC=C1N=NC2=CC=C(O)C=C2","-","-","AUTO_384","-","A139592","32006830","-","","-","-","165.5","Celsius","-","-","-","-","165.5","Celsius","-","-","","-",""
"CCC([O-])=O.C1CN=C2CCCCC[NH+]2C1","-","-","AUTO_386","-","A132545","-","-","","-","-","166.0","Celsius","-","-","-","-","166.0","Celsius","-","-","","-",""
"CCCCCC[N+]1=CC=CC=C1.FC(F)(F)C(F)(F)[PH](F)(F)(C(F)(F)C(F)(F)F)C(F)(F)C(F)(F)F","-","-","AUTO_387","-","A139562","24173956","-","-","-","-","166.0","Celsius","-","-","-","-","166.0","Celsius","-","-","","-",""
"CC1=[N+](C)N=NN1N.O=N(=O)C1=NC(=N[N-]1)N(=O)=O","-","-","AUTO_388","-","A139517","16586524","-","-","-","-","166.0","Celsius","-","-","-","-","166.0","Celsius","-","-","","-",""
"COS([O-])(=O)=O.CN1C=C([N+](C)=C1)N(=O)=O","-","-","AUTO_389","-","A132545","-","-","-","-","-","166.0","Celsius","-","-","-","-","166.0","Celsius","-","-","","-",""
"[O-]C(=O)[C@@H]1CCCN1.C[N+]1(CCN)CCNCC1","-","-","AUTO_390","-","A132545","-","-","-","-","-","166.0","Celsius","-","-","-","-","166.0","Celsius","-","-","","-",""
"[O-]S(=O)(=O)C(F)(F)F.CCOC1=[N+](C)CCC1","-","-","AUTO_391","-","A132545","-","-","-","-","-","166.0","Celsius","-","-","-","-","166.0","Celsius","-","-","","-",""
"[NH3+]CCO.[O-]C(=O)C=C","-","-","AUTO_392","-","A132545","-","-","","-","-","166.0","Celsius","-","-","-","-","166.0","Celsius","-","-","","-",""
"[NH3+]CCO.OC(CC([O-])=O)C(O)=O","-","-","AUTO_393","-","A132545","-","-","","-","-","166.0","Celsius","-","-","-","-","166.0","Celsius","-","-","","-",""
"OC(=O)CCCCCCCC([O-])=O.CCCCCCCC[NH+](CCCCCCCC)CCCCCCCC","-","-","AUTO_394","-","A132545","-","-","","-","-","166.05","Celsius","-","-","-","-","166.05","Celsius","-","-","","-",""
"COC1=[N+](C)CCC1.FS(=O)(=O)[N-]S(F)(=O)=O","-","-","AUTO_398","-","A132545","-","-","-","-","-","167.0","Celsius","-","-","-","-","167.0","Celsius","-","-","","-",""
"[NH3+]CCO.CCCCCCCCC=CCCCCCCCC([O-])=O","-","-","AUTO_400","-","A132545","-","-","","-","-","167.0","Celsius","-","-","-","-","167.0","Celsius","-","-","","-",""
"OP(O)([O-])=O.CC[NH+]1C=CN=C1","-","-","AUTO_404","-","A132545","-","-","","-","-","168.0","Celsius","-","-","-","-","168.0","Celsius","-","-","","-",""
"[O-]S(=O)(=O)NC1CCCCC1.CCCCCCCCCOC[N+]1=CC=CC=C1","-","-","AUTO_405","-","A132545","-","-","-","-","-","168.0","Celsius","-","-","-","-","168.0","Celsius","-","-","","-",""
"O=C1CCC[N-]1.CCCCCCCCCCCC[N+](C)(CCO)CCO","-","-","AUTO_407","-","A139582","27315131","-","-","-","-","168.0","Celsius","-","-","-","-","168.0","Celsius","-","-","","-",""
"[N-]1C=CC=N1.CCCCCCCCCCCCCC[N+](C)(C)CC","-","-","AUTO_409","-","A132545","-","-","-","-","-","168.0","Celsius","-","-","-","-","168.0","Celsius","-","-","","-",""
"CC[B-](CC)(CC)C[Si](C)(C)C.CCCC[P+](CCCC)(CCCC)CCCC","-","-","AUTO_410","-","A139536","19053106","-","-","-","-","168.0","Celsius","-","-","-","-","168.0","Celsius","-","-","","-",""
"[Cl-].[NH3+]C(CO)(CO)CO","-","-","AUTO_411","-","A139597","32395848","-","","-","-","168.85","Celsius","-","-","-","-","168.85","Celsius","-","-","","-",""
"[NH3+]CCO.OCC([O-])=O","-","-","AUTO_414","-","A139525","17665379","-","","-","-","169.0","Celsius","-","-","-","-","169.0","Celsius","-","-","","-",""
"[N-]=C=S.CN1C=C[N+](CC2=CC=CC=C2)=C1","-","-","AUTO_415","-","A132545","-","-","-","-","-","169.0","Celsius","-","-","-","-","169.0","Celsius","-","-","","-",""
"OCC[NH2+]CCO.[O-]C(=O)C1=CC=C(O)C=C1","-","-","AUTO_416","-","A132545","-","-","","-","-","169.0","Celsius","-","-","-","-","169.0","Celsius","-","-","","-",""
"CC([O-])=O.CC[N+]1(CCOCCOC)CCCCC1","-","-","AUTO_417","-","A132545","-","-","-","-","-","169.0","Celsius","-","-","-","-","169.0","Celsius","-","-","","-",""
"[F-].C[N+](C)(C)C","-","-","AUTO_420","-","A132545","-","-","-","-","-","170.0","Celsius","-","-","-","-","170.0","Celsius","-","-","","-",""
"CC(O)C([O-])=O.OCC[NH2+]CCO","-","-","AUTO_422","-","A139546","20499940","-","","-","-","170.0","Celsius","-","-","-","-","170.0","Celsius","-","-","","-",""
"[O-]S(=O)(=O)C(F)(F)F.CCCCN1C=C[N+](C)=N1","-","-","AUTO_423","-","A132545","-","-","-","-","-","170.0","Celsius","-","-","-","-","170.0","Celsius","-","-","","-",""
"FC(F)(F)S(=O)(=O)[N-]S(=O)(=O)C(F)(F)F.CCCCCOC[N+](C)(C)CCOC(C)=O","-","-","AUTO_428","-","A132545","-","-","-","-","-","170.0","Celsius","-","-","-","-","170.0","Celsius","-","-","","-",""
"FC(F)(F)S(=O)(=O)[N-]S(=O)(=O)C(F)(F)F.CCCCCCOC[N+](C)(C)CCOC(C)=O","-","-","AUTO_429","-","A132545","-","-","-","-","-","170.0","Celsius","-","-","-","-","170.0","Celsius","-","-","","-",""
"FC(F)(F)S(=O)(=O)[N-]S(=O)(=O)C(F)(F)F.CCCCCCCOC[N+](C)(C)CCOC(C)=O","-","-","AUTO_430","-","A132545","-","-","-","-","-","170.0","Celsius","-","-","-","-","170.0","Celsius","-","-","","-",""
"FC(F)(F)S(=O)(=O)[N-]S(=O)(=O)C(F)(F)F.CCCCCCCCOC[N+](C)(C)CCOC(C)=O","-","-","AUTO_431","-","A132545","-","-","-","-","-","170.0","Celsius","-","-","-","-","170.0","Celsius","-","-","","-",""
"FC(F)(F)S(=O)(=O)[N-]S(=O)(=O)C(F)(F)F.CCCCCCCCCOC[N+](C)(C)CCOC(C)=O","-","-","AUTO_432","-","A132545","-","-","-","-","-","170.0","Celsius","-","-","-","-","170.0","Celsius","-","-","","-",""
"FC(F)(F)S(=O)(=O)[N-]S(=O)(=O)C(F)(F)F.CCCCCCCCCCOC[N+](C)(C)CCOC(C)=O","-","-","AUTO_433","-","A132545","-","-","-","-","-","170.0","Celsius","-","-","-","-","170.0","Celsius","-","-","","-",""
"FC(F)(F)S(=O)(=O)[N-]S(=O)(=O)C(F)(F)F.CCCCCCCCCCCOC[N+](C)(C)CCOC(C)=O","-","-","AUTO_434","-","A132545","-","-","-","-","-","170.0","Celsius","-","-","-","-","170.0","Celsius","-","-","","-",""
"FC(F)(F)S(=O)(=O)[N-]S(=O)(=O)C(F)(F)F.CCCCCCCCCCCCOC[N+](C)(C)CCOC(C)=O","-","-","AUTO_435","-","A132545","-","-","-","-","-","170.0","Celsius","-","-","-","-","170.0","Celsius","-","-","","-",""
"CCCCCCCCCCCCCC[NH3+].COCCOCCOCCOCC([O-])=O","-","-","AUTO_436","-","A132545","-","-","","-","-","170.0","Celsius","-","-","-","-","170.0","Celsius","-","-","","-",""
"CCCCCC([O-])=O.C1C[NH+]2CCCN=C2C1","-","-","AUTO_440","-","A139562","24173956","-","","-","-","171.0","Celsius","-","-","-","-","171.0","Celsius","-","-","","-",""
"[O-]S(=O)(=O)C(F)(F)F.CCOC1=[N+](CC)CCC1","-","-","AUTO_441","-","A132545","-","-","-","-","-","171.0","Celsius","-","-","-","-","171.0","Celsius","-","-","","-",""
"OCC[NH2+]CCO.OC(CC([O-])=O)C(O)=O","-","-","AUTO_445","-","A132545","-","-","","-","-","172.0","Celsius","-","-","-","-","172.0","Celsius","-","-","","-",""
"[Br-].CN1CC[N+](C)(CCF)CC1","-","-","AUTO_446","-","A139513","16010324","-","-","-","-","172.0","Celsius","-","-","-","-","172.0","Celsius","-","-","","-",""
"CC([O-])=O.[C@@H](C)([NH3+])C(=O)OC","-","-","AUTO_447","-","A132545","-","-","","-","-","172.0","Celsius","-","-","-","-","172.0","Celsius","-","-","","-",""
"[O-]N(=O)=O.CN1C=C[N+](CCCS(F)(F)(F)(F)F)=C1","-","-","AUTO_450","-","A132545","-","-","-","-","-","172.3","Celsius","-","-","-","-","172.3","Celsius","-","-","","-",""
"CC([O-])=O.[NH3+]CCOCCO","-","-","AUTO_451","-","A132545","-","-","","-","-","172.74","Celsius","-","-","-","-","172.74","Celsius","-","-","","-",""
"CC([O-])=O.CCCC[N+]1=CN(C)C=C1","-","-","AUTO_452","-","A132545","-","-","-","-","-","172.85","Celsius","-","-","-","-","172.85","Celsius","-","-","","-",""
"CCCCN1C=C[N+](C)=C1.CC1=CC=C(C=C1)[B-](C2=CC=C(C)C=C2)(C3=CC=C(C)C=C3)C4=CC=C(C)C=C4","-","-","AUTO_453","-","A132545","-","-","-","-","-","173.0","Celsius","-","-","-","-","173.0","Celsius","-","-","","-",""
"NCC([O-])=O.C[N+]1(CCN)CCNCC1","-","-","AUTO_454","-","A132545","-","-","-","-","-","173.0","Celsius","-","-","-","-","173.0","Celsius","-","-","","-",""
"C[N+](C)(C)C.OCCN(CCO)CC([O-])=O","-","-","AUTO_455","-","A132545","-","-","-","-","-","173.0","Celsius","-","-","-","-","173.0","Celsius","-","-","","-",""
"OCC[NH2+]CCO.[O-]C(=O)CCC(O)=O","-","-","AUTO_458","-","A132545","-","-","","-","-","174.0","Celsius","-","-","-","-","174.0","Celsius","-","-","","-",""
"C[C@H](N)C([O-])=O.C[N+]1(CCN)CCNCC1","-","-","AUTO_460","-","A132545","-","-","-","-","-","174.0","Celsius","-","-","-","-","174.0","Celsius","-","-","","-",""
"O=C1CCC[N-]1.CCCCCCCCCCCCCC[N+](C)(CCO)CCO","-","-","AUTO_462","-","A139582","27315131","-","-","-","-","174.0","Celsius","-","-","-","-","174.0","Celsius","-","-","","-",""
"[N-]1C=CN=C1.CCCCCCCCCC[N+](C)(C)CC","-","-","AUTO_463","-","A132545","-","-","-","-","-","174.0","Celsius","-","-","-","-","174.0","Celsius","-","-","","-",""
"N#C[N-]C#N.C[N+](C)(N)CC#C","-","-","AUTO_464","-","A139542","20135648","-","-","-","-","174.3","Celsius","-","-","-","-","174.3","Celsius","-","-","","-",""